   4   4   1   0
  0.1053315E+02  0.2512428E-09  0.2512428E-09  0.7707265E-09  0.5000000E-15
  1.000000000000000E-004
  CAR 
 unknown system                          
     26.74299762    -18.44169674  301      1.60901138      1.00000000
    -18.442  0.0000E+00  0.0000E+00  0.0000E+00  0.0000E+00
    -18.291  0.0000E+00  0.0000E+00  0.0000E+00  0.0000E+00
    -18.140  0.0000E+00  0.0000E+00  0.0000E+00  0.0000E+00
    -17.990  0.0000E+00  0.0000E+00  0.0000E+00  0.0000E+00
    -17.839  0.0000E+00  0.0000E+00  0.0000E+00  0.0000E+00
    -17.689  0.0000E+00  0.0000E+00  0.0000E+00  0.0000E+00
    -17.538  0.0000E+00  0.0000E+00  0.0000E+00  0.0000E+00
    -17.387  0.0000E+00  0.0000E+00  0.0000E+00  0.0000E+00
    -17.237  0.0000E+00  0.0000E+00  0.0000E+00  0.0000E+00
    -17.086  0.0000E+00  0.0000E+00  0.0000E+00  0.0000E+00
    -16.936  0.0000E+00  0.0000E+00  0.0000E+00  0.0000E+00
    -16.785  0.0000E+00  0.0000E+00  0.0000E+00  0.0000E+00
    -16.634  0.2766E-12  0.2057E-12  0.4166E-13  0.3098E-13
    -16.484  0.7776E-03  0.6833E-03  0.1171E-03  0.1029E-03
    -16.333  0.5087E+00  0.4987E+00  0.7673E-01  0.7521E-01
    -16.182  0.1064E+01  0.1067E+01  0.2370E+00  0.2359E+00
    -16.032  0.5971E+00  0.5992E+00  0.3269E+00  0.3262E+00
    -15.881  0.4543E+00  0.4554E+00  0.3953E+00  0.3948E+00
    -15.731  0.3907E+00  0.3911E+00  0.4542E+00  0.4537E+00
    -15.580  0.3499E+00  0.3505E+00  0.5069E+00  0.5065E+00
    -15.429  0.3136E+00  0.3139E+00  0.5541E+00  0.5538E+00
    -15.279  0.2955E+00  0.2957E+00  0.5986E+00  0.5983E+00
    -15.128  0.2779E+00  0.2781E+00  0.6405E+00  0.6402E+00
    -14.978  0.2632E+00  0.2632E+00  0.6801E+00  0.6798E+00
    -14.827  0.2531E+00  0.2530E+00  0.7182E+00  0.7179E+00
    -14.676  0.2450E+00  0.2449E+00  0.7551E+00  0.7548E+00
    -14.526  0.2387E+00  0.2388E+00  0.7911E+00  0.7908E+00
    -14.375  0.2380E+00  0.2382E+00  0.8269E+00  0.8267E+00
    -14.224  0.2448E+00  0.2450E+00  0.8638E+00  0.8636E+00
    -14.074  0.2515E+00  0.2514E+00  0.9017E+00  0.9014E+00
    -13.923  0.2531E+00  0.2528E+00  0.9398E+00  0.9395E+00
    -13.773  0.2548E+00  0.2548E+00  0.9782E+00  0.9779E+00
    -13.622  0.2590E+00  0.2593E+00  0.1017E+01  0.1017E+01
    -13.471  0.2822E+00  0.2820E+00  0.1060E+01  0.1059E+01
    -13.321  0.4064E+00  0.4049E+00  0.1121E+01  0.1120E+01
    -13.170  0.1711E+01  0.1708E+01  0.1379E+01  0.1378E+01
    -13.020  0.1068E+01  0.1070E+01  0.1539E+01  0.1539E+01
    -12.869  0.9110E+00  0.9115E+00  0.1677E+01  0.1676E+01
    -12.718  0.1201E+01  0.1199E+01  0.1857E+01  0.1857E+01
    -12.568  0.9454E+00  0.9506E+00  0.2000E+01  0.2000E+01
    -12.417  0.6950E-03  0.7233E-03  0.2000E+01  0.2000E+01
    -12.266  0.0000E+00  0.0000E+00  0.2000E+01  0.2000E+01
    -12.116  0.0000E+00  0.0000E+00  0.2000E+01  0.2000E+01
    -11.965  0.0000E+00  0.0000E+00  0.2000E+01  0.2000E+01
    -11.815  0.0000E+00  0.0000E+00  0.2000E+01  0.2000E+01
    -11.664  0.0000E+00  0.0000E+00  0.2000E+01  0.2000E+01
    -11.513  0.0000E+00  0.0000E+00  0.2000E+01  0.2000E+01
    -11.363  0.0000E+00  0.0000E+00  0.2000E+01  0.2000E+01
    -11.212  0.0000E+00  0.0000E+00  0.2000E+01  0.2000E+01
    -11.062  0.0000E+00  0.0000E+00  0.2000E+01  0.2000E+01
    -10.911  0.0000E+00  0.0000E+00  0.2000E+01  0.2000E+01
    -10.760  0.0000E+00  0.0000E+00  0.2000E+01  0.2000E+01
    -10.610  0.0000E+00  0.0000E+00  0.2000E+01  0.2000E+01
    -10.459  0.0000E+00  0.0000E+00  0.2000E+01  0.2000E+01
    -10.308  0.0000E+00  0.0000E+00  0.2000E+01  0.2000E+01
    -10.158  0.0000E+00  0.0000E+00  0.2000E+01  0.2000E+01
    -10.007  0.0000E+00  0.0000E+00  0.2000E+01  0.2000E+01
     -9.857  0.0000E+00  0.0000E+00  0.2000E+01  0.2000E+01
     -9.706  0.0000E+00  0.0000E+00  0.2000E+01  0.2000E+01
     -9.555  0.0000E+00  0.0000E+00  0.2000E+01  0.2000E+01
     -9.405  0.0000E+00  0.0000E+00  0.2000E+01  0.2000E+01
     -9.254  0.0000E+00  0.0000E+00  0.2000E+01  0.2000E+01
     -9.104  0.0000E+00  0.0000E+00  0.2000E+01  0.2000E+01
     -8.953  0.0000E+00  0.0000E+00  0.2000E+01  0.2000E+01
     -8.802  0.0000E+00  0.0000E+00  0.2000E+01  0.2000E+01
     -8.652  0.0000E+00  0.0000E+00  0.2000E+01  0.2000E+01
     -8.501  0.0000E+00  0.0000E+00  0.2000E+01  0.2000E+01
     -8.350  0.0000E+00  0.0000E+00  0.2000E+01  0.2000E+01
     -8.200  0.0000E+00  0.0000E+00  0.2000E+01  0.2000E+01
     -8.049  0.0000E+00  0.0000E+00  0.2000E+01  0.2000E+01
     -7.899  0.9407E-15  0.5932E-15  0.2000E+01  0.2000E+01
     -7.748  0.7130E-04  0.5689E-04  0.2000E+01  0.2000E+01
     -7.597  0.6710E+00  0.6436E+00  0.2101E+01  0.2097E+01
     -7.447  0.1372E+01  0.1387E+01  0.2308E+01  0.2306E+01
     -7.296  0.7514E+00  0.7545E+00  0.2421E+01  0.2420E+01
     -7.146  0.5818E+00  0.5828E+00  0.2509E+01  0.2507E+01
     -6.995  0.4898E+00  0.4916E+00  0.2582E+01  0.2581E+01
     -6.844  0.4957E+00  0.4972E+00  0.2657E+01  0.2656E+01
     -6.694  0.7745E+00  0.7617E+00  0.2774E+01  0.2771E+01
     -6.543  0.1213E+01  0.1225E+01  0.2956E+01  0.2956E+01
     -6.392  0.2896E+00  0.2932E+00  0.3000E+01  0.3000E+01
     -6.242  0.1979E+00  0.1958E+00  0.3030E+01  0.3029E+01
     -6.091  0.1384E+00  0.1415E+00  0.3051E+01  0.3051E+01
     -5.941  0.2913E+00  0.2862E+00  0.3095E+01  0.3094E+01
     -5.790  0.8346E+00  0.8352E+00  0.3220E+01  0.3219E+01
     -5.639  0.5493E+00  0.5484E+00  0.3303E+01  0.3302E+01
     -5.489  0.3958E+00  0.3986E+00  0.3363E+01  0.3362E+01
     -5.338  0.5087E+00  0.5078E+00  0.3439E+01  0.3439E+01
     -5.188  0.3018E+00  0.3050E+00  0.3485E+01  0.3484E+01
     -5.037  0.5087E+00  0.5084E+00  0.3561E+01  0.3561E+01
     -4.886  0.2633E+00  0.2618E+00  0.3601E+01  0.3600E+01
     -4.736  0.4420E+00  0.4414E+00  0.3668E+01  0.3667E+01
     -4.585  0.2746E+00  0.2763E+00  0.3709E+01  0.3709E+01
     -4.434  0.6736E+00  0.6630E+00  0.3810E+01  0.3808E+01
     -4.284  0.7197E+00  0.7252E+00  0.3919E+01  0.3918E+01
     -4.133  0.6503E+00  0.6525E+00  0.4017E+01  0.4016E+01
     -3.983  0.5035E+00  0.5049E+00  0.4093E+01  0.4092E+01
     -3.832  0.5447E+00  0.5410E+00  0.4175E+01  0.4173E+01
     -3.681  0.4765E+00  0.4800E+00  0.4246E+01  0.4246E+01
     -3.531  0.5569E+00  0.5559E+00  0.4330E+01  0.4329E+01
     -3.380  0.9259E+00  0.9179E+00  0.4470E+01  0.4468E+01
     -3.230  0.8945E+00  0.8998E+00  0.4604E+01  0.4603E+01
     -3.079  0.8066E+00  0.8075E+00  0.4726E+01  0.4725E+01
     -2.928  0.7787E+00  0.7779E+00  0.4843E+01  0.4842E+01
     -2.778  0.1564E+01  0.1563E+01  0.5079E+01  0.5077E+01
     -2.627  0.8292E+00  0.8313E+00  0.5204E+01  0.5203E+01
     -2.476  0.7439E+00  0.7458E+00  0.5316E+01  0.5315E+01
     -2.326  0.5865E+00  0.5850E+00  0.5404E+01  0.5403E+01
     -2.175  0.6519E+00  0.6546E+00  0.5502E+01  0.5502E+01
     -2.025  0.5299E+00  0.5302E+00  0.5582E+01  0.5582E+01
     -1.874  0.6844E+00  0.6823E+00  0.5685E+01  0.5684E+01
     -1.723  0.3978E+00  0.3990E+00  0.5745E+01  0.5744E+01
     -1.573  0.6655E+00  0.6660E+00  0.5845E+01  0.5845E+01
     -1.422  0.4815E+00  0.4802E+00  0.5918E+01  0.5917E+01
     -1.272  0.6210E+00  0.6210E+00  0.6011E+01  0.6011E+01
     -1.121  0.4780E+00  0.4795E+00  0.6083E+01  0.6083E+01
     -0.970  0.6212E+00  0.6221E+00  0.6177E+01  0.6177E+01
     -0.820  0.6063E+00  0.6051E+00  0.6268E+01  0.6268E+01
     -0.669  0.5952E+00  0.5960E+00  0.6358E+01  0.6357E+01
     -0.518  0.6783E+00  0.6764E+00  0.6460E+01  0.6459E+01
     -0.368  0.6904E+00  0.6918E+00  0.6564E+01  0.6563E+01
     -0.217  0.9223E+00  0.9227E+00  0.6703E+01  0.6702E+01
     -0.067  0.1487E+01  0.1485E+01  0.6927E+01  0.6926E+01
      0.084  0.9385E+00  0.9406E+00  0.7068E+01  0.7068E+01
      0.235  0.6537E+00  0.6493E+00  0.7166E+01  0.7166E+01
      0.385  0.7792E+00  0.7799E+00  0.7284E+01  0.7283E+01
      0.536  0.4438E+00  0.4463E+00  0.7351E+01  0.7350E+01
      0.686  0.8207E+00  0.8188E+00  0.7474E+01  0.7474E+01
      0.837  0.6816E+00  0.6834E+00  0.7577E+01  0.7577E+01
      0.988  0.5995E+00  0.5999E+00  0.7667E+01  0.7667E+01
      1.138  0.6211E+00  0.6211E+00  0.7761E+01  0.7760E+01
      1.289  0.9531E+00  0.9515E+00  0.7904E+01  0.7904E+01
      1.440  0.6348E+00  0.6385E+00  0.8000E+01  0.8000E+01
      1.590  0.1696E-03  0.1757E-03  0.8000E+01  0.8000E+01
      1.741  0.0000E+00  0.0000E+00  0.8000E+01  0.8000E+01
      1.891  0.0000E+00  0.0000E+00  0.8000E+01  0.8000E+01
      2.042  0.0000E+00  0.0000E+00  0.8000E+01  0.8000E+01
      2.193  0.0000E+00  0.0000E+00  0.8000E+01  0.8000E+01
      2.343  0.0000E+00  0.0000E+00  0.8000E+01  0.8000E+01
      2.494  0.0000E+00  0.0000E+00  0.8000E+01  0.8000E+01
      2.644  0.0000E+00  0.0000E+00  0.8000E+01  0.8000E+01
      2.795  0.0000E+00  0.0000E+00  0.8000E+01  0.8000E+01
      2.946  0.0000E+00  0.0000E+00  0.8000E+01  0.8000E+01
      3.096  0.0000E+00  0.0000E+00  0.8000E+01  0.8000E+01
      3.247  0.0000E+00  0.0000E+00  0.8000E+01  0.8000E+01
      3.398  0.0000E+00  0.0000E+00  0.8000E+01  0.8000E+01
      3.548  0.0000E+00  0.0000E+00  0.8000E+01  0.8000E+01
      3.699  0.0000E+00  0.0000E+00  0.8000E+01  0.8000E+01
      3.849  0.0000E+00  0.0000E+00  0.8000E+01  0.8000E+01
      4.000  0.0000E+00  0.0000E+00  0.8000E+01  0.8000E+01
      4.151  0.0000E+00  0.0000E+00  0.8000E+01  0.8000E+01
      4.301  0.0000E+00  0.0000E+00  0.8000E+01  0.8000E+01
      4.452  0.0000E+00  0.0000E+00  0.8000E+01  0.8000E+01
      4.602  0.0000E+00  0.0000E+00  0.8000E+01  0.8000E+01
      4.753  0.0000E+00  0.0000E+00  0.8000E+01  0.8000E+01
      4.904  0.0000E+00  0.0000E+00  0.8000E+01  0.8000E+01
      5.054  0.0000E+00  0.0000E+00  0.8000E+01  0.8000E+01
      5.205  0.0000E+00  0.0000E+00  0.8000E+01  0.8000E+01
      5.356  0.2580E-14  0.1222E-14  0.8000E+01  0.8000E+01
      5.506  0.9964E-04  0.6974E-04  0.8000E+01  0.8000E+01
      5.657  0.4299E+00  0.4056E+00  0.8065E+01  0.8061E+01
      5.807  0.1644E+01  0.1611E+01  0.8312E+01  0.8304E+01
      5.958  0.1862E+01  0.1899E+01  0.8593E+01  0.8590E+01
      6.109  0.9013E+00  0.9057E+00  0.8729E+01  0.8726E+01
      6.259  0.9572E+00  0.9446E+00  0.8873E+01  0.8869E+01
      6.410  0.1242E+01  0.1265E+01  0.9060E+01  0.9059E+01
      6.561  0.3161E+00  0.3188E+00  0.9107E+01  0.9107E+01
      6.711  0.3019E+00  0.3008E+00  0.9153E+01  0.9152E+01
      6.862  0.2446E+00  0.2445E+00  0.9190E+01  0.9189E+01
      7.012  0.2462E+00  0.2476E+00  0.9227E+01  0.9226E+01
      7.163  0.2647E+00  0.2649E+00  0.9267E+01  0.9266E+01
      7.314  0.2047E+00  0.2036E+00  0.9297E+01  0.9297E+01
      7.464  0.2137E+00  0.2150E+00  0.9330E+01  0.9329E+01
      7.615  0.2544E+00  0.2524E+00  0.9368E+01  0.9367E+01
      7.765  0.2105E+00  0.2128E+00  0.9400E+01  0.9399E+01
      7.916  0.1954E+00  0.1931E+00  0.9429E+01  0.9428E+01
      8.067  0.2392E+00  0.2423E+00  0.9465E+01  0.9465E+01
      8.217  0.2024E+00  0.2007E+00  0.9496E+01  0.9495E+01
      8.368  0.2523E+00  0.2535E+00  0.9534E+01  0.9533E+01
      8.519  0.2506E+00  0.2514E+00  0.9571E+01  0.9571E+01
      8.669  0.2175E+00  0.2167E+00  0.9604E+01  0.9604E+01
      8.820  0.7517E-01  0.7580E-01  0.9615E+01  0.9615E+01
      8.970  0.1968E+00  0.1953E+00  0.9645E+01  0.9645E+01
      9.121  0.1082E+00  0.1099E+00  0.9661E+01  0.9661E+01
      9.272  0.1816E+00  0.1816E+00  0.9689E+01  0.9689E+01
      9.422  0.2237E+00  0.2243E+00  0.9722E+01  0.9722E+01
      9.573  0.2704E+00  0.2716E+00  0.9763E+01  0.9763E+01
      9.723  0.5648E+00  0.5687E+00  0.9848E+01  0.9849E+01
      9.874  0.1187E+01  0.1191E+01  0.1003E+02  0.1003E+02
     10.025  0.4950E+00  0.4832E+00  0.1010E+02  0.1010E+02
     10.175  0.1496E+00  0.1519E+00  0.1012E+02  0.1012E+02
     10.326  0.1771E+00  0.1761E+00  0.1015E+02  0.1015E+02
     10.477  0.1229E+00  0.1225E+00  0.1017E+02  0.1017E+02
     10.627  0.3456E+00  0.3390E+00  0.1022E+02  0.1022E+02
     10.778  0.3576E+00  0.3594E+00  0.1028E+02  0.1027E+02
     10.928  0.7650E+00  0.7452E+00  0.1039E+02  0.1039E+02
     11.079  0.8152E+00  0.8287E+00  0.1051E+02  0.1051E+02
     11.230  0.5606E+00  0.5659E+00  0.1060E+02  0.1060E+02
     11.380  0.3248E+00  0.3257E+00  0.1065E+02  0.1065E+02
     11.531  0.3876E+00  0.3880E+00  0.1070E+02  0.1070E+02
     11.681  0.2749E+00  0.2759E+00  0.1075E+02  0.1075E+02
     11.832  0.3573E+00  0.3561E+00  0.1080E+02  0.1080E+02
     11.983  0.3224E+00  0.3233E+00  0.1085E+02  0.1085E+02
     12.133  0.3938E+00  0.3847E+00  0.1091E+02  0.1091E+02
     12.284  0.1589E+01  0.1577E+01  0.1115E+02  0.1114E+02
     12.435  0.1211E+01  0.1217E+01  0.1133E+02  0.1133E+02
     12.585  0.1068E+01  0.1062E+01  0.1149E+02  0.1149E+02
     12.736  0.2375E+01  0.2354E+01  0.1185E+02  0.1184E+02
     12.886  0.1623E+01  0.1646E+01  0.1209E+02  0.1209E+02
     13.037  0.1437E+01  0.1442E+01  0.1231E+02  0.1231E+02
     13.188  0.1158E+01  0.1159E+01  0.1248E+02  0.1248E+02
     13.338  0.1035E+01  0.1030E+01  0.1264E+02  0.1264E+02
     13.489  0.1684E+01  0.1689E+01  0.1289E+02  0.1289E+02
     13.639  0.1262E+01  0.1268E+01  0.1308E+02  0.1308E+02
     13.790  0.1176E+01  0.1174E+01  0.1326E+02  0.1326E+02
     13.941  0.1577E+01  0.1576E+01  0.1350E+02  0.1350E+02
     14.091  0.1246E+01  0.1248E+01  0.1369E+02  0.1368E+02
     14.242  0.1349E+01  0.1348E+01  0.1389E+02  0.1389E+02
     14.393  0.1206E+01  0.1204E+01  0.1407E+02  0.1407E+02
     14.543  0.8394E+00  0.8471E+00  0.1420E+02  0.1420E+02
     14.694  0.6556E+00  0.6516E+00  0.1430E+02  0.1429E+02
     14.844  0.9790E+00  0.9804E+00  0.1444E+02  0.1444E+02
     14.995  0.4900E+00  0.4906E+00  0.1452E+02  0.1452E+02
     15.146  0.1213E+01  0.1195E+01  0.1470E+02  0.1470E+02
     15.296  0.1210E+01  0.1228E+01  0.1488E+02  0.1488E+02
     15.447  0.6214E+00  0.6229E+00  0.1498E+02  0.1497E+02
     15.597  0.7599E+00  0.7560E+00  0.1509E+02  0.1509E+02
     15.748  0.7097E+00  0.7168E+00  0.1520E+02  0.1520E+02
     15.899  0.7739E+00  0.7635E+00  0.1531E+02  0.1531E+02
     16.049  0.1114E+01  0.1108E+01  0.1548E+02  0.1548E+02
     16.200  0.6816E+00  0.6900E+00  0.1558E+02  0.1558E+02
     16.351  0.6680E+00  0.6683E+00  0.1568E+02  0.1568E+02
     16.501  0.4710E+00  0.4712E+00  0.1576E+02  0.1575E+02
     16.652  0.5389E+00  0.5418E+00  0.1584E+02  0.1584E+02
     16.802  0.5100E+00  0.5102E+00  0.1591E+02  0.1591E+02
     16.953  0.5139E+00  0.5119E+00  0.1599E+02  0.1599E+02
     17.104  0.4462E+00  0.4485E+00  0.1606E+02  0.1606E+02
     17.254  0.5802E+00  0.5792E+00  0.1615E+02  0.1614E+02
     17.405  0.8361E+00  0.8385E+00  0.1627E+02  0.1627E+02
     17.555  0.1151E+01  0.1147E+01  0.1644E+02  0.1644E+02
     17.706  0.2751E+00  0.2835E+00  0.1649E+02  0.1649E+02
     17.857  0.3896E+00  0.3834E+00  0.1654E+02  0.1654E+02
     18.007  0.2306E+00  0.2334E+00  0.1658E+02  0.1658E+02
     18.158  0.4944E+00  0.4914E+00  0.1665E+02  0.1665E+02
     18.309  0.5997E+00  0.6006E+00  0.1674E+02  0.1674E+02
     18.459  0.3423E+00  0.3446E+00  0.1680E+02  0.1679E+02
     18.610  0.4464E+00  0.4479E+00  0.1686E+02  0.1686E+02
     18.760  0.3252E+00  0.3230E+00  0.1691E+02  0.1691E+02
     18.911  0.1090E+01  0.1071E+01  0.1708E+02  0.1707E+02
     19.062  0.1278E+01  0.1287E+01  0.1727E+02  0.1727E+02
     19.212  0.1000E+01  0.1053E+01  0.1742E+02  0.1742E+02
     19.363  0.1133E+01  0.1128E+01  0.1759E+02  0.1759E+02
     19.513  0.1796E+01  0.1774E+01  0.1786E+02  0.1786E+02
     19.664  0.2057E+01  0.2069E+01  0.1817E+02  0.1817E+02
     19.815  0.1545E+01  0.1488E+01  0.1840E+02  0.1840E+02
     19.965  0.8972E+00  0.9181E+00  0.1854E+02  0.1854E+02
     20.116  0.6677E+00  0.6710E+00  0.1864E+02  0.1864E+02
     20.267  0.8708E+00  0.8747E+00  0.1877E+02  0.1877E+02
     20.417  0.9232E+00  0.9803E+00  0.1891E+02  0.1892E+02
     20.568  0.6940E+00  0.7634E+00  0.1901E+02  0.1903E+02
     20.718  0.4285E+00  0.4333E+00  0.1908E+02  0.1910E+02
     20.869  0.2146E+00  0.2136E+00  0.1911E+02  0.1913E+02
     21.020  0.2673E+00  0.2167E+00  0.1915E+02  0.1916E+02
     21.170  0.3093E+00  0.2982E+00  0.1920E+02  0.1921E+02
     21.321  0.1621E+00  0.1624E+00  0.1922E+02  0.1923E+02
     21.471  0.3329E+00  0.3313E+00  0.1927E+02  0.1928E+02
     21.622  0.2311E+00  0.2338E+00  0.1931E+02  0.1932E+02
     21.773  0.2623E+00  0.2576E+00  0.1935E+02  0.1935E+02
     21.923  0.2486E+00  0.2535E+00  0.1938E+02  0.1939E+02
     22.074  0.1605E+00  0.1574E+00  0.1941E+02  0.1942E+02
     22.225  0.2548E+00  0.2550E+00  0.1945E+02  0.1945E+02
     22.375  0.2315E+00  0.2329E+00  0.1948E+02  0.1949E+02
     22.526  0.2454E+00  0.2411E+00  0.1952E+02  0.1953E+02
     22.676  0.3419E+00  0.3336E+00  0.1957E+02  0.1958E+02
     22.827  0.9976E+00  0.9414E+00  0.1972E+02  0.1972E+02
     22.978  0.4030E+00  0.4103E+00  0.1978E+02  0.1978E+02
     23.128  0.6641E-01  0.6698E-01  0.1979E+02  0.1979E+02
     23.279  0.6571E-01  0.6428E-01  0.1980E+02  0.1980E+02
     23.429  0.6297E-01  0.6470E-01  0.1981E+02  0.1981E+02
     23.580  0.9316E-01  0.8973E-01  0.1982E+02  0.1982E+02
     23.731  0.4647E-01  0.4764E-01  0.1983E+02  0.1983E+02
     23.881  0.1117E+00  0.1139E+00  0.1985E+02  0.1985E+02
     24.032  0.1079E+00  0.1042E+00  0.1986E+02  0.1986E+02
     24.183  0.9041E-01  0.8776E-01  0.1988E+02  0.1988E+02
     24.333  0.1204E+00  0.1204E+00  0.1990E+02  0.1989E+02
     24.484  0.1600E+00  0.1606E+00  0.1992E+02  0.1992E+02
     24.634  0.2544E+00  0.2472E+00  0.1996E+02  0.1996E+02
     24.785  0.2791E+00  0.2923E+00  0.2000E+02  0.2000E+02
     24.936  0.3554E-03  0.5434E-03  0.2000E+02  0.2000E+02
     25.086  0.0000E+00  0.1987E-12  0.2000E+02  0.2000E+02
     25.237  0.0000E+00  0.0000E+00  0.2000E+02  0.2000E+02
     25.387  0.0000E+00  0.0000E+00  0.2000E+02  0.2000E+02
     25.538  0.0000E+00  0.0000E+00  0.2000E+02  0.2000E+02
     25.689  0.0000E+00  0.0000E+00  0.2000E+02  0.2000E+02
     25.839  0.0000E+00  0.0000E+00  0.2000E+02  0.2000E+02
     25.990  0.0000E+00  0.0000E+00  0.2000E+02  0.2000E+02
     26.141  0.0000E+00  0.0000E+00  0.2000E+02  0.2000E+02
     26.291  0.0000E+00  0.0000E+00  0.2000E+02  0.2000E+02
     26.442  0.0000E+00  0.0000E+00  0.2000E+02  0.2000E+02
     26.592  0.0000E+00  0.0000E+00  0.2000E+02  0.2000E+02
     26.743  0.0000E+00  0.0000E+00  0.2000E+02  0.2000E+02
     26.74299762    -18.44169674  301      1.60901138      1.00000000
    -18.442  0.0000E+00  0.0000E+00  0.0000E+00  0.0000E+00  0.0000E+00  0.0000E+00  0.0000E+00  0.0000E+00  0.0000E+00  0.0000E+00  0.0000E+00  0.0000E+00  0.0000E+00  0.0000E+00  0.0000E+00  0.0000E+00  0.0000E+00  0.0000E+00
    -18.291  0.0000E+00  0.0000E+00  0.0000E+00  0.0000E+00  0.0000E+00  0.0000E+00  0.0000E+00  0.0000E+00  0.0000E+00  0.0000E+00  0.0000E+00  0.0000E+00  0.0000E+00  0.0000E+00  0.0000E+00  0.0000E+00  0.0000E+00  0.0000E+00
    -18.140  0.0000E+00  0.0000E+00  0.0000E+00  0.0000E+00  0.0000E+00  0.0000E+00  0.0000E+00  0.0000E+00  0.0000E+00  0.0000E+00  0.0000E+00  0.0000E+00  0.0000E+00  0.0000E+00  0.0000E+00  0.0000E+00  0.0000E+00  0.0000E+00
    -17.990  0.0000E+00  0.0000E+00  0.0000E+00  0.0000E+00  0.0000E+00  0.0000E+00  0.0000E+00  0.0000E+00  0.0000E+00  0.0000E+00  0.0000E+00  0.0000E+00  0.0000E+00  0.0000E+00  0.0000E+00  0.0000E+00  0.0000E+00  0.0000E+00
    -17.839  0.0000E+00  0.0000E+00  0.0000E+00  0.0000E+00  0.0000E+00  0.0000E+00  0.0000E+00  0.0000E+00  0.0000E+00  0.0000E+00  0.0000E+00  0.0000E+00  0.0000E+00  0.0000E+00  0.0000E+00  0.0000E+00  0.0000E+00  0.0000E+00
    -17.689  0.0000E+00  0.0000E+00  0.0000E+00  0.0000E+00  0.0000E+00  0.0000E+00  0.0000E+00  0.0000E+00  0.0000E+00  0.0000E+00  0.0000E+00  0.0000E+00  0.0000E+00  0.0000E+00  0.0000E+00  0.0000E+00  0.0000E+00  0.0000E+00
    -17.538  0.0000E+00  0.0000E+00  0.0000E+00  0.0000E+00  0.0000E+00  0.0000E+00  0.0000E+00  0.0000E+00  0.0000E+00  0.0000E+00  0.0000E+00  0.0000E+00  0.0000E+00  0.0000E+00  0.0000E+00  0.0000E+00  0.0000E+00  0.0000E+00
    -17.387  0.0000E+00  0.0000E+00  0.0000E+00  0.0000E+00  0.0000E+00  0.0000E+00  0.0000E+00  0.0000E+00  0.0000E+00  0.0000E+00  0.0000E+00  0.0000E+00  0.0000E+00  0.0000E+00  0.0000E+00  0.0000E+00  0.0000E+00  0.0000E+00
    -17.237  0.0000E+00  0.0000E+00  0.0000E+00  0.0000E+00  0.0000E+00  0.0000E+00  0.0000E+00  0.0000E+00  0.0000E+00  0.0000E+00  0.0000E+00  0.0000E+00  0.0000E+00  0.0000E+00  0.0000E+00  0.0000E+00  0.0000E+00  0.0000E+00
    -17.086  0.0000E+00  0.0000E+00  0.0000E+00  0.0000E+00  0.0000E+00  0.0000E+00  0.0000E+00  0.0000E+00  0.0000E+00  0.0000E+00  0.0000E+00  0.0000E+00  0.0000E+00  0.0000E+00  0.0000E+00  0.0000E+00  0.0000E+00  0.0000E+00
    -16.936  0.0000E+00  0.0000E+00  0.0000E+00  0.0000E+00  0.0000E+00  0.0000E+00  0.0000E+00  0.0000E+00  0.0000E+00  0.0000E+00  0.0000E+00  0.0000E+00  0.0000E+00  0.0000E+00  0.0000E+00  0.0000E+00  0.0000E+00  0.0000E+00
    -16.785  0.0000E+00  0.0000E+00  0.0000E+00  0.0000E+00  0.0000E+00  0.0000E+00  0.0000E+00  0.0000E+00  0.0000E+00  0.0000E+00  0.0000E+00  0.0000E+00  0.0000E+00  0.0000E+00  0.0000E+00  0.0000E+00  0.0000E+00  0.0000E+00
    -16.634  0.3709E-13  0.2758E-13  0.1437E-17  0.1062E-17  0.3640E-21  0.2682E-21  0.9357E-17  0.6914E-17  0.0000E+00  0.0000E+00  0.0000E+00  0.0000E+00  0.0000E+00  0.0000E+00  0.0000E+00  0.0000E+00  0.0000E+00  0.0000E+00
    -16.484  0.1042E-03  0.9156E-04  0.9888E-08  0.8589E-08  0.2487E-11  0.2156E-11  0.6445E-07  0.5598E-07  0.0000E+00  0.0000E+00  0.0000E+00  0.0000E+00  0.0000E+00  0.0000E+00  0.0000E+00  0.0000E+00  0.0000E+00  0.0000E+00
    -16.333  0.6803E-01  0.6669E-01  0.3194E-04  0.3088E-04  0.7721E-08  0.7462E-08  0.2077E-03  0.2008E-03  0.0000E+00  0.0000E+00  0.0000E+00  0.0000E+00  0.0000E+00  0.0000E+00  0.0000E+00  0.0000E+00  0.0000E+00  0.0000E+00
    -16.182  0.1415E+00  0.1419E+00  0.2541E-03  0.2516E-03  0.5954E-07  0.5909E-07  0.1637E-02  0.1621E-02  0.0000E+00  0.0000E+00  0.0000E+00  0.0000E+00  0.0000E+00  0.0000E+00  0.0000E+00  0.0000E+00  0.0000E+00  0.0000E+00
    -16.032  0.7676E-01  0.7705E-01  0.4692E-03  0.4678E-03  0.1057E-06  0.1058E-06  0.3001E-02  0.2991E-02  0.0000E+00  0.0000E+00  0.0000E+00  0.0000E+00  0.0000E+00  0.0000E+00  0.0000E+00  0.0000E+00  0.0000E+00  0.0000E+00
    -15.881  0.5640E-01  0.5654E-01  0.6177E-03  0.6163E-03  0.1307E-06  0.1309E-06  0.3863E-02  0.3857E-02  0.0000E+00  0.0000E+00  0.0000E+00  0.0000E+00  0.0000E+00  0.0000E+00  0.0000E+00  0.0000E+00  0.0000E+00  0.0000E+00
    -15.731  0.4678E-01  0.4683E-01  0.7321E-03  0.7316E-03  0.1430E-06  0.1434E-06  0.4690E-02  0.4681E-02  0.0000E+00  0.0000E+00  0.0000E+00  0.0000E+00  0.0000E+00  0.0000E+00  0.0000E+00  0.0000E+00  0.0000E+00  0.0000E+00
    -15.580  0.4031E-01  0.4040E-01  0.8732E-03  0.8721E-03  0.1563E-06  0.1567E-06  0.5392E-02  0.5392E-02  0.0000E+00  0.0000E+00  0.0000E+00  0.0000E+00  0.0000E+00  0.0000E+00  0.0000E+00  0.0000E+00  0.0000E+00  0.0000E+00
    -15.429  0.3469E-01  0.3474E-01  0.9716E-03  0.9714E-03  0.1604E-06  0.1610E-06  0.5913E-02  0.5911E-02  0.0000E+00  0.0000E+00  0.0000E+00  0.0000E+00  0.0000E+00  0.0000E+00  0.0000E+00  0.0000E+00  0.0000E+00  0.0000E+00
    -15.279  0.3135E-01  0.3137E-01  0.1092E-02  0.1091E-02  0.1665E-06  0.1670E-06  0.6583E-02  0.6579E-02  0.0000E+00  0.0000E+00  0.0000E+00  0.0000E+00  0.0000E+00  0.0000E+00  0.0000E+00  0.0000E+00  0.0000E+00  0.0000E+00
    -15.128  0.2817E-01  0.2820E-01  0.1191E-02  0.1192E-02  0.1661E-06  0.1667E-06  0.7162E-02  0.7161E-02  0.0000E+00  0.0000E+00  0.0000E+00  0.0000E+00  0.0000E+00  0.0000E+00  0.0000E+00  0.0000E+00  0.0000E+00  0.0000E+00
    -14.978  0.2539E-01  0.2540E-01  0.1297E-02  0.1296E-02  0.1645E-06  0.1648E-06  0.7710E-02  0.7705E-02  0.0000E+00  0.0000E+00  0.0000E+00  0.0000E+00  0.0000E+00  0.0000E+00  0.0000E+00  0.0000E+00  0.0000E+00  0.0000E+00
    -14.827  0.2316E-01  0.2316E-01  0.1432E-02  0.1430E-02  0.1658E-06  0.1659E-06  0.8288E-02  0.8280E-02  0.0000E+00  0.0000E+00  0.0000E+00  0.0000E+00  0.0000E+00  0.0000E+00  0.0000E+00  0.0000E+00  0.0000E+00  0.0000E+00
    -14.676  0.2118E-01  0.2118E-01  0.1583E-02  0.1581E-02  0.1658E-06  0.1658E-06  0.8855E-02  0.8845E-02  0.0000E+00  0.0000E+00  0.0000E+00  0.0000E+00  0.0000E+00  0.0000E+00  0.0000E+00  0.0000E+00  0.0000E+00  0.0000E+00
    -14.526  0.1941E-01  0.1942E-01  0.1747E-02  0.1745E-02  0.1651E-06  0.1651E-06  0.9435E-02  0.9429E-02  0.0000E+00  0.0000E+00  0.0000E+00  0.0000E+00  0.0000E+00  0.0000E+00  0.0000E+00  0.0000E+00  0.0000E+00  0.0000E+00
    -14.375  0.1808E-01  0.1810E-01  0.1937E-02  0.1936E-02  0.1639E-06  0.1638E-06  0.1023E-01  0.1024E-01  0.0000E+00  0.0000E+00  0.0000E+00  0.0000E+00  0.0000E+00  0.0000E+00  0.0000E+00  0.0000E+00  0.0000E+00  0.0000E+00
    -14.224  0.1719E-01  0.1721E-01  0.2186E-02  0.2184E-02  0.1635E-06  0.1634E-06  0.1145E-01  0.1146E-01  0.0000E+00  0.0000E+00  0.0000E+00  0.0000E+00  0.0000E+00  0.0000E+00  0.0000E+00  0.0000E+00  0.0000E+00  0.0000E+00
    -14.074  0.1608E-01  0.1608E-01  0.2500E-02  0.2498E-02  0.1646E-06  0.1644E-06  0.1273E-01  0.1272E-01  0.0000E+00  0.0000E+00  0.0000E+00  0.0000E+00  0.0000E+00  0.0000E+00  0.0000E+00  0.0000E+00  0.0000E+00  0.0000E+00
    -13.923  0.1451E-01  0.1450E-01  0.2874E-02  0.2871E-02  0.1674E-06  0.1672E-06  0.1374E-01  0.1372E-01  0.0000E+00  0.0000E+00  0.0000E+00  0.0000E+00  0.0000E+00  0.0000E+00  0.0000E+00  0.0000E+00  0.0000E+00  0.0000E+00
    -13.773  0.1288E-01  0.1289E-01  0.3309E-02  0.3309E-02  0.1719E-06  0.1719E-06  0.1472E-01  0.1471E-01  0.0000E+00  0.0000E+00  0.0000E+00  0.0000E+00  0.0000E+00  0.0000E+00  0.0000E+00  0.0000E+00  0.0000E+00  0.0000E+00
    -13.622  0.1134E-01  0.1136E-01  0.3756E-02  0.3760E-02  0.1718E-06  0.1719E-06  0.1587E-01  0.1588E-01  0.0000E+00  0.0000E+00  0.0000E+00  0.0000E+00  0.0000E+00  0.0000E+00  0.0000E+00  0.0000E+00  0.0000E+00  0.0000E+00
    -13.471  0.1028E-01  0.1028E-01  0.4577E-02  0.4570E-02  0.1814E-06  0.1809E-06  0.1832E-01  0.1830E-01  0.0000E+00  0.0000E+00  0.0000E+00  0.0000E+00  0.0000E+00  0.0000E+00  0.0000E+00  0.0000E+00  0.0000E+00  0.0000E+00
    -13.321  0.1100E-01  0.1098E-01  0.7808E-02  0.7767E-02  0.2657E-06  0.2644E-06  0.2794E-01  0.2782E-01  0.0000E+00  0.0000E+00  0.0000E+00  0.0000E+00  0.0000E+00  0.0000E+00  0.0000E+00  0.0000E+00  0.0000E+00  0.0000E+00
    -13.170  0.2958E-01  0.2955E-01  0.4044E-01  0.4036E-01  0.3209E-06  0.3218E-06  0.1222E+00  0.1220E+00  0.0000E+00  0.0000E+00  0.0000E+00  0.0000E+00  0.0000E+00  0.0000E+00  0.0000E+00  0.0000E+00  0.0000E+00  0.0000E+00
    -13.020  0.1526E-01  0.1530E-01  0.2808E-01  0.2813E-01  0.1233E-08  0.1295E-08  0.7479E-01  0.7495E-01  0.0000E+00  0.0000E+00  0.0000E+00  0.0000E+00  0.0000E+00  0.0000E+00  0.0000E+00  0.0000E+00  0.0000E+00  0.0000E+00
    -12.869  0.9011E-02  0.9030E-02  0.2818E-01  0.2818E-01  0.1282E-14  0.5107E-16  0.6144E-01  0.6148E-01  0.0000E+00  0.0000E+00  0.0000E+00  0.0000E+00  0.0000E+00  0.0000E+00  0.0000E+00  0.0000E+00  0.0000E+00  0.0000E+00
    -12.718  0.5063E-02  0.5076E-02  0.4688E-01  0.4675E-01  0.2973E-12  0.5802E-13  0.7470E-01  0.7459E-01  0.0000E+00  0.0000E+00  0.0000E+00  0.0000E+00  0.0000E+00  0.0000E+00  0.0000E+00  0.0000E+00  0.0000E+00  0.0000E+00
    -12.568  0.7506E-03  0.7586E-03  0.4469E-01  0.4492E-01  0.1766E-13  0.1134E-13  0.5268E-01  0.5298E-01  0.0000E+00  0.0000E+00  0.0000E+00  0.0000E+00  0.0000E+00  0.0000E+00  0.0000E+00  0.0000E+00  0.0000E+00  0.0000E+00
    -12.417  0.1126E-06  0.1175E-06  0.3480E-04  0.3622E-04  0.3242E-19  0.5133E-19  0.3701E-04  0.3852E-04  0.0000E+00  0.0000E+00  0.0000E+00  0.0000E+00  0.0000E+00  0.0000E+00  0.0000E+00  0.0000E+00  0.0000E+00  0.0000E+00
    -12.266  0.0000E+00  0.0000E+00  0.0000E+00  0.0000E+00  0.0000E+00  0.0000E+00  0.0000E+00  0.0000E+00  0.0000E+00  0.0000E+00  0.0000E+00  0.0000E+00  0.0000E+00  0.0000E+00  0.0000E+00  0.0000E+00  0.0000E+00  0.0000E+00
    -12.116  0.0000E+00  0.0000E+00  0.0000E+00  0.0000E+00  0.0000E+00  0.0000E+00  0.0000E+00  0.0000E+00  0.0000E+00  0.0000E+00  0.0000E+00  0.0000E+00  0.0000E+00  0.0000E+00  0.0000E+00  0.0000E+00  0.0000E+00  0.0000E+00
    -11.965  0.0000E+00  0.0000E+00  0.0000E+00  0.0000E+00  0.0000E+00  0.0000E+00  0.0000E+00  0.0000E+00  0.0000E+00  0.0000E+00  0.0000E+00  0.0000E+00  0.0000E+00  0.0000E+00  0.0000E+00  0.0000E+00  0.0000E+00  0.0000E+00
    -11.815  0.0000E+00  0.0000E+00  0.0000E+00  0.0000E+00  0.0000E+00  0.0000E+00  0.0000E+00  0.0000E+00  0.0000E+00  0.0000E+00  0.0000E+00  0.0000E+00  0.0000E+00  0.0000E+00  0.0000E+00  0.0000E+00  0.0000E+00  0.0000E+00
    -11.664  0.0000E+00  0.0000E+00  0.0000E+00  0.0000E+00  0.0000E+00  0.0000E+00  0.0000E+00  0.0000E+00  0.0000E+00  0.0000E+00  0.0000E+00  0.0000E+00  0.0000E+00  0.0000E+00  0.0000E+00  0.0000E+00  0.0000E+00  0.0000E+00
    -11.513  0.0000E+00  0.0000E+00  0.0000E+00  0.0000E+00  0.0000E+00  0.0000E+00  0.0000E+00  0.0000E+00  0.0000E+00  0.0000E+00  0.0000E+00  0.0000E+00  0.0000E+00  0.0000E+00  0.0000E+00  0.0000E+00  0.0000E+00  0.0000E+00
    -11.363  0.0000E+00  0.0000E+00  0.0000E+00  0.0000E+00  0.0000E+00  0.0000E+00  0.0000E+00  0.0000E+00  0.0000E+00  0.0000E+00  0.0000E+00  0.0000E+00  0.0000E+00  0.0000E+00  0.0000E+00  0.0000E+00  0.0000E+00  0.0000E+00
    -11.212  0.0000E+00  0.0000E+00  0.0000E+00  0.0000E+00  0.0000E+00  0.0000E+00  0.0000E+00  0.0000E+00  0.0000E+00  0.0000E+00  0.0000E+00  0.0000E+00  0.0000E+00  0.0000E+00  0.0000E+00  0.0000E+00  0.0000E+00  0.0000E+00
    -11.062  0.0000E+00  0.0000E+00  0.0000E+00  0.0000E+00  0.0000E+00  0.0000E+00  0.0000E+00  0.0000E+00  0.0000E+00  0.0000E+00  0.0000E+00  0.0000E+00  0.0000E+00  0.0000E+00  0.0000E+00  0.0000E+00  0.0000E+00  0.0000E+00
    -10.911  0.0000E+00  0.0000E+00  0.0000E+00  0.0000E+00  0.0000E+00  0.0000E+00  0.0000E+00  0.0000E+00  0.0000E+00  0.0000E+00  0.0000E+00  0.0000E+00  0.0000E+00  0.0000E+00  0.0000E+00  0.0000E+00  0.0000E+00  0.0000E+00