    4    4    1    2
  0.1053315E+02  0.2512428E-09  0.2512428E-09  0.7707265E-09  0.5000000E-15
  1.000000000000000E-004
  CAR 
 unknown system                          
     16    105     20
 
  0.0000000E+00  0.0000000E+00  0.0000000E+00  0.9523810E-02
    1      -16.387847    -16.386387   1.000000   1.000000
    2      -16.300280    -16.298834   1.000000   1.000000
    3       -4.443315     -4.441078   1.000000   1.000000
    4       -3.450516     -3.448201   1.000000   1.000000
    5       -0.050188     -0.050027   1.000000   1.000000
    6       -0.050186     -0.050026   1.000000   1.000000
    7       -0.042726     -0.042568   1.000000   1.000000
    8       -0.042725     -0.042567   1.000000   1.000000
    9        5.741168      5.741367   0.000000   0.000000
   10        9.800174      9.797705   0.000000   0.000000
   11       12.166012     12.169880   0.000000   0.000000
   12       12.677231     12.680163   0.000000   0.000000
   13       12.677241     12.680173   0.000000   0.000000
   14       12.710739     12.713664   0.000000   0.000000
   15       12.710748     12.713673   0.000000   0.000000
   16       13.895200     13.896325   0.000000   0.000000
   17       15.144759     15.146928   0.000000   0.000000
   18       15.906145     15.907056   0.000000   0.000000
   19       18.922730     18.927621   0.000000   0.000000
   20       24.684437     24.689130   0.000000   0.000000
 
  0.1470588E-01  0.0000000E+00  0.1470588E-01  0.9523810E-02
    1      -16.383586    -16.382126   1.000000   1.000000
    2      -16.296163    -16.294718   1.000000   1.000000
    3       -4.437121     -4.434884   1.000000   1.000000
    4       -3.445726     -3.443412   1.000000   1.000000
    5       -0.068489     -0.068322   1.000000   1.000000
    6       -0.061333     -0.061169   1.000000   1.000000
    7       -0.058748     -0.058586   1.000000   1.000000
    8       -0.051259     -0.051098   1.000000   1.000000
    9        5.750626      5.750824   0.000000   0.000000
   10        9.798036      9.795581   0.000000   0.000000
   11       12.175122     12.178970   0.000000   0.000000
   12       12.674308     12.677237   0.000000   0.000000
   13       12.696183     12.699116   0.000000   0.000000
   14       12.713890     12.716820   0.000000   0.000000
   15       12.729698     12.732624   0.000000   0.000000
   16       13.880891     13.882019   0.000000   0.000000
   17       15.159787     15.161954   0.000000   0.000000
   18       15.892987     15.893902   0.000000   0.000000
   19       18.935667     18.940554   0.000000   0.000000
   20       24.669765     24.674574   0.000000   0.000000
 
  0.2941176E-01  0.0000000E+00  0.2941176E-01  0.9523810E-02
    1      -16.370865    -16.369408   1.000000   1.000000
    2      -16.283877    -16.282434   1.000000   1.000000
    3       -4.418556     -4.416321   1.000000   1.000000
    4       -3.431360     -3.429049   1.000000   1.000000
    5       -0.123060     -0.122876   1.000000   1.000000
    6       -0.116749     -0.116567   1.000000   1.000000
    7       -0.084251     -0.084080   1.000000   1.000000
    8       -0.076670     -0.076501   1.000000   1.000000
    9        5.778839      5.779034   0.000000   0.000000
   10        9.791782      9.789368   0.000000   0.000000
   11       12.199572     12.203358   0.000000   0.000000
   12       12.666950     12.669883   0.000000   0.000000
   13       12.724071     12.727033   0.000000   0.000000
   14       12.752815     12.755739   0.000000   0.000000
   15       12.786185     12.789102   0.000000   0.000000
   16       13.838235     13.839375   0.000000   0.000000
   17       15.204381     15.206539   0.000000   0.000000
   18       15.853981     15.854905   0.000000   0.000000
   19       18.973839     18.978714   0.000000   0.000000
   20       24.626391     24.631081   0.000000   0.000000
 
  0.4411765E-01  0.0000000E+00  0.4411765E-01  0.9523810E-02
    1      -16.349700    -16.348246   1.000000   1.000000
    2      -16.263406    -16.261966   1.000000   1.000000
    3       -4.387628     -4.385397   1.000000   1.000000
    4       -3.407429     -3.405123   1.000000   1.000000
    5       -0.212852     -0.212639   1.000000   1.000000
    6       -0.207781     -0.207571   1.000000   1.000000
    7       -0.126124     -0.125939   1.000000   1.000000
    8       -0.118399     -0.118216   1.000000   1.000000
    9        5.825393      5.825583   0.000000   0.000000
   10        9.782107      9.779756   0.000000   0.000000
   11       12.230749     12.234430   0.000000   0.000000
   12       12.656736     12.659674   0.000000   0.000000
   13       12.746893     12.749918   0.000000   0.000000
   14       12.846503     12.849412   0.000000   0.000000
   15       12.879642     12.882543   0.000000   0.000000
   16       13.767954     13.769111   0.000000   0.000000
   17       15.277233     15.279379   0.000000   0.000000
   18       15.791005     15.791942   0.000000   0.000000
   19       19.035950     19.040806   0.000000   0.000000
   20       24.554811     24.559554   0.000000   0.000000
 
  0.5882353E-01  0.0000000E+00  0.5882353E-01  0.9523810E-02
    1      -16.320114    -16.318664   1.000000   1.000000
    2      -16.234802    -16.233367   1.000000   1.000000
    3       -4.344400     -4.342174   1.000000   1.000000
    4       -3.373947     -3.371649   1.000000   1.000000
    5       -0.336261     -0.336012   1.000000   1.000000
    6       -0.332557     -0.332309   1.000000   1.000000
    7       -0.183471     -0.183267   1.000000   1.000000
    8       -0.175552     -0.175351   1.000000   1.000000
    9        5.889668      5.889852   0.000000   0.000000
   10        9.769725      9.767455   0.000000   0.000000
   11       12.255693     12.259232   0.000000   0.000000
   12       12.643492     12.646434   0.000000   0.000000
   13       12.793000     12.796117   0.000000   0.000000
   14       12.976247     12.979134   0.000000   0.000000
   15       13.009074     13.011955   0.000000   0.000000
   16       13.671083     13.672265   0.000000   0.000000
   17       15.376422     15.378551   0.000000   0.000000
   18       15.706698     15.707652   0.000000   0.000000
   19       19.119947     19.124782   0.000000   0.000000
   20       24.456238     24.460936   0.000000   0.000000
 
  0.7352941E-01  0.0000000E+00  0.7352941E-01  0.9523810E-02
    1      -16.282138    -16.280695   1.000000   1.000000
    2      -16.198071    -16.196642   1.000000   1.000000
    3       -4.288909     -4.286689   1.000000   1.000000
    4       -3.330937     -3.328648   1.000000   1.000000
    5       -0.491264     -0.490968   1.000000   1.000000
    6       -0.488589     -0.488296   1.000000   1.000000
    7       -0.255075     -0.254847   1.000000   1.000000
    8       -0.246952     -0.246727   1.000000   1.000000
    9        5.970908      5.971085   0.000000   0.000000
   10        9.755530      9.753355   0.000000   0.000000
   11       12.263246     12.266643   0.000000   0.000000
   12       12.626361     12.629308   0.000000   0.000000
   13       12.871110     12.874319   0.000000   0.000000
   14       13.140807     13.143668   0.000000   0.000000
   15       13.173165     13.176021   0.000000   0.000000
   16       13.548758     13.549971   0.000000   0.000000
   17       15.499836     15.501947   0.000000   0.000000
   18       15.605236     15.606206   0.000000   0.000000
   19       19.223244     19.228054   0.000000   0.000000
   20       24.331458     24.336186   0.000000   0.000000
 
  0.8823529E-01  0.0000000E+00  0.8823529E-01  0.9523810E-02
    1      -16.235883    -16.234447   1.000000   1.000000
    2      -16.153331    -16.151909   1.000000   1.000000
    3       -4.221260     -4.219048   1.000000   1.000000
    4       -3.278437     -3.276160   1.000000   1.000000
    5       -0.675473     -0.675125   1.000000   1.000000
    6       -0.673056     -0.672709   1.000000   1.000000
    7       -0.339560     -0.339307   1.000000   1.000000
    8       -0.331198     -0.330947   1.000000   1.000000
    9        6.068291      6.068462   0.000000   0.000000
   10        9.740088      9.738016   0.000000   0.000000
   11       12.250349     12.253633   0.000000   0.000000
   12       12.604788     12.607738   0.000000   0.000000
   13       12.979833     12.983103   0.000000   0.000000
   14       13.338378     13.341210   0.000000   0.000000
   15       13.370436     13.373262   0.000000   0.000000
   16       13.402105     13.403356   0.000000   0.000000
   17       15.491910     15.492897   0.000000   0.000000
   18       15.645041     15.647130   0.000000   0.000000
   19       19.342920     19.347705   0.000000   0.000000
   20       24.181103     24.185834   0.000000   0.000000
 
  0.1029412E+00  0.0000000E+00  0.1029412E+00  0.9523810E-02
    1      -16.181418    -16.179991   1.000000   1.000000
    2      -16.100606    -16.099192   1.000000   1.000000
    3       -4.141544     -4.139341   1.000000   1.000000
    4       -3.216496     -3.214233   1.000000   1.000000
    5       -0.886115     -0.885709   1.000000   1.000000
    6       -0.883136     -0.882731   1.000000   1.000000
    7       -0.435398     -0.435116   1.000000   1.000000
    8       -0.426796     -0.426516   1.000000   1.000000
    9        6.181012      6.181177   0.000000   0.000000
   10        9.723873      9.721910   0.000000   0.000000
   11       12.220363     12.223573   0.000000   0.000000
   12       12.578463     12.581417   0.000000   0.000000
   13       13.109001     13.112293   0.000000   0.000000
   14       13.232664     13.233962   0.000000   0.000000
   15       13.567293     13.570093   0.000000   0.000000
   16       13.598906     13.601700   0.000000   0.000000
   17       15.374354     15.375361   0.000000   0.000000
   18       15.809647     15.811714   0.000000   0.000000
   19       19.475783     19.480544   0.000000   0.000000
   20       24.005493     24.010221   0.000000   0.000000
 
  0.1176471E+00  0.0000000E+00  0.1176471E+00  0.9523810E-02
    1      -16.118800    -16.117383   1.000000   1.000000
    2      -16.040001    -16.038598   1.000000   1.000000
    3       -4.049899     -4.047707   1.000000   1.000000
    4       -3.145175     -3.142928   1.000000   1.000000
    5       -1.119872     -1.119404   1.000000   1.000000
    6       -1.116172     -1.115704   1.000000   1.000000
    7       -0.540883     -0.540570   1.000000   1.000000
    8       -0.532072     -0.531762   1.000000   1.000000
    9        6.308281      6.308440   0.000000   0.000000
   10        9.706817      9.704969   0.000000   0.000000
   11       12.177856     12.181021   0.000000   0.000000
   12       12.547178     12.550130   0.000000   0.000000
   13       13.042433     13.043791   0.000000   0.000000
   14       13.244102     13.247380   0.000000   0.000000
   15       13.825620     13.828385   0.000000   0.000000
   16       13.856756     13.859515   0.000000   0.000000
   17       15.263460     15.264496   0.000000   0.000000
   18       15.991223     15.993269   0.000000   0.000000
   19       19.618391     19.623131   0.000000   0.000000
   20       23.804906     23.809617   0.000000   0.000000
 
  0.1323529E+00  0.0000000E+00  0.1323529E+00  0.9523810E-02
    1      -16.048172    -16.046767   1.000000   1.000000
    2      -15.971626    -15.970234   1.000000   1.000000
    3       -3.946477     -3.944298   1.000000   1.000000
    4       -3.064563     -3.062334   1.000000   1.000000
    5       -1.373691     -1.373158   1.000000   1.000000
    6       -1.369421     -1.368887   1.000000   1.000000
    7       -0.654382     -0.654037   1.000000   1.000000
    8       -0.645373     -0.645031   1.000000   1.000000
    9        6.449358      6.449514   0.000000   0.000000
   10        9.688516      9.686787   0.000000   0.000000
   11       12.126110     12.129249   0.000000   0.000000
   12       12.508904     12.511824   0.000000   0.000000
   13       12.835344     12.836799   0.000000   0.000000
   14       13.366989     13.370207   0.000000   0.000000
   15       14.111380     14.114108   0.000000   0.000000
   16       14.142123     14.144845   0.000000   0.000000
   17       15.174925     15.176020   0.000000   0.000000
   18       16.187330     16.189355   0.000000   0.000000
   19       19.767089     19.771808   0.000000   0.000000
   20       23.579703     23.584376   0.000000   0.000000
 
  0.1470588E+00  0.0000000E+00  0.1470588E+00  0.9523810E-02
    1      -15.969699    -15.968307   1.000000   1.000000
    2      -15.895595    -15.894216   1.000000   1.000000
    3       -3.831464     -3.829298   1.000000   1.000000
    4       -2.974810     -2.972603   1.000000   1.000000
    5       -1.644676     -1.644075   1.000000   1.000000
    6       -1.640047     -1.639445   1.000000   1.000000
    7       -0.774288     -0.773911   1.000000   1.000000
    8       -0.765119     -0.764745   1.000000   1.000000
    9        6.603525      6.603678   0.000000   0.000000
   10        9.668316      9.666713   0.000000   0.000000
   11       12.066984     12.070111   0.000000   0.000000
   12       12.449810     12.452477   0.000000   0.000000
   13       12.627093     12.628870   0.000000   0.000000
   14       13.456145     13.459237   0.000000   0.000000
   15       14.422459     14.425149   0.000000   0.000000
   16       14.452691     14.455375   0.000000   0.000000
   17       15.129814     15.131020   0.000000   0.000000
   18       16.395487     16.397494   0.000000   0.000000
   19       19.917725     19.922426   0.000000   0.000000
   20       23.330833     23.335446   0.000000   0.000000
 
  0.1617647E+00  0.0000000E+00  0.1617647E+00  0.9523810E-02
    1      -15.883513    -15.882135   1.000000   1.000000
    2      -15.812070    -15.810706   1.000000   1.000000
    3       -3.705097     -3.702948   1.000000   1.000000
    4       -2.876169     -2.873986   1.000000   1.000000
    5       -1.930014     -1.929344   1.000000   1.000000
    6       -1.925221     -1.924550   1.000000   1.000000
    7       -0.898946     -0.898537   1.000000   1.000000
    8       -0.889671     -0.889265   1.000000   1.000000
    9        6.770038      6.770192   0.000000   0.000000
   10        9.644899      9.643431   0.000000   0.000000
   11       12.001262     12.004387   0.000000   0.000000
   12       12.295233     12.297088   0.000000   0.000000
   13       12.494968     12.497635   0.000000   0.000000
   14       13.491798     13.494684   0.000000   0.000000
   15       14.756843     14.759494   0.000000   0.000000
   16       14.786712     14.789358   0.000000   0.000000
   17       15.148553     15.149940   0.000000   0.000000
   18       16.613322     16.615312   0.000000   0.000000
   19       20.065544     20.070227   0.000000   0.000000
   20       23.060176     23.064701   0.000000   0.000000
 
  0.1764706E+00  0.0000000E+00  0.1764706E+00  0.9523810E-02
    1      -15.789791    -15.788431   1.000000   1.000000
    2      -15.721241    -15.719893   1.000000   1.000000
    3       -3.567689     -3.565559   1.000000   1.000000
    4       -2.769433     -2.767281   1.000000   1.000000
    5       -2.226875     -2.226131   1.000000   1.000000
    6       -2.221884     -2.221141   1.000000   1.000000
    7       -1.026888     -1.026447   1.000000   1.000000
    8       -1.017550     -1.017112   1.000000   1.000000
    9        6.948080      6.948235   0.000000   0.000000
   10        9.616484      9.615162   0.000000   0.000000
   11       11.928427     11.931552   0.000000   0.000000
   12       12.049360     12.051063   0.000000   0.000000
   13       12.437898     12.440803   0.000000   0.000000
   14       13.467579     13.470211   0.000000   0.000000
   15       15.112416     15.115029   0.000000   0.000000
   16       15.141822     15.144430   0.000000   0.000000
   17       15.239547     15.241148   0.000000   0.000000
   18       16.838516     16.840494   0.000000   0.000000
   19       20.204765     20.209426   0.000000   0.000000
   20       22.770746     22.775164   0.000000   0.000000
 
  0.1911765E+00  0.0000000E+00  0.1911765E+00  0.9523810E-02
    1      -15.688824    -15.687482   1.000000   1.000000
    2      -15.623326    -15.621995   1.000000   1.000000
    3       -3.419760     -3.417652   1.000000   1.000000
    4       -2.663856     -2.661860   1.000000   1.000000
    5       -2.532091     -2.531270   1.000000   1.000000
    6       -2.519099     -2.518163   1.000000   1.000000
    7       -1.156748     -1.156276   1.000000   1.000000
    8       -1.147362     -1.146893   1.000000   1.000000
    9        7.136660      7.136818   0.000000   0.000000
   10        9.580665      9.579504   0.000000   0.000000
   11       11.771253     11.773032   0.000000   0.000000
   12       11.852954     11.856052   0.000000   0.000000
   13       12.394513     12.397467   0.000000   0.000000
   14       13.395103     13.397486   0.000000   0.000000
   15       15.393881     15.395680   0.000000   0.000000
   16       15.487097     15.489671   0.000000   0.000000
   17       15.516094     15.518664   0.000000   0.000000
   18       17.068497     17.070467   0.000000   0.000000
   19       20.328181     20.332814   0.000000   0.000000
   20       22.466695     22.470972   0.000000   0.000000
 
  0.2058824E+00  0.0000000E+00  0.2058824E+00  0.9523810E-02
    1      -15.580829    -15.579506   1.000000   1.000000
    2      -15.518538    -15.517228   1.000000   1.000000
    3       -3.262984     -3.260909   1.000000   1.000000
    4       -2.855713     -2.854817   1.000000   1.000000
    5       -2.843628     -2.842734   1.000000   1.000000
    6       -2.516880     -2.514801   1.000000   1.000000
    7       -1.287158     -1.286656   1.000000   1.000000
    8       -1.277814     -1.277315   1.000000   1.000000
    9        7.334507      7.334671   0.000000   0.000000
   10        9.534353      9.533370   0.000000   0.000000
   11       11.483653     11.485460   0.000000   0.000000
   12       11.765053     11.768215   0.000000   0.000000
   13       12.354756     12.357722   0.000000   0.000000
   14       13.295522     13.297683   0.000000   0.000000
   15       15.594049     15.596000   0.000000   0.000000
   16       15.878910     15.881446   0.000000   0.000000
   17       15.907501     15.910033   0.000000   0.000000
   18       17.300918     17.302883   0.000000   0.000000
   19       20.426708     20.431297   0.000000   0.000000
   20       22.153166     22.157291   0.000000   0.000000
 
  0.2205882E+00  0.0000000E+00  0.2205882E+00  0.9523810E-02
    1      -15.466130    -15.464829   1.000000   1.000000
    2      -15.407212    -15.405923   1.000000   1.000000
    3       -3.189354     -3.188227   1.000000   1.000000
    4       -3.170852     -3.169900   1.000000   1.000000
    5       -3.069359     -3.067478   1.000000   1.000000
    6       -2.385953     -2.383888   1.000000   1.000000
    7       -1.416987     -1.416457   1.000000   1.000000
    8       -1.407724     -1.407197   1.000000   1.000000
    9        7.539816      7.539988   0.000000   0.000000
   10        9.473638      9.472858   0.000000   0.000000
   11       11.185389     11.187279   0.000000   0.000000
   12       11.671086     11.674273   0.000000   0.000000
   13       12.317372     12.320336   0.000000   0.000000
   14       13.188452     13.190419   0.000000   0.000000
   15       15.823668     15.825725   0.000000   0.000000
   16       16.285683     16.288181   0.000000   0.000000
   17       16.314085     16.316580   0.000000   0.000000
   18       17.533382     17.535350   0.000000   0.000000
   19       20.489287     20.493801   0.000000   0.000000
   20       21.835302     21.839266   0.000000   0.000000
 
  0.2352941E+00  0.0000000E+00  0.2352941E+00  0.9523810E-02
    1      -15.345096    -15.343819   1.000000   1.000000
    2      -15.289685    -15.288420   1.000000   1.000000
    3       -3.498421     -3.497397   1.000000   1.000000
    4       -3.491427     -3.490410   1.000000   1.000000
    5       -2.906216     -2.904188   1.000000   1.000000
    6       -2.244400     -2.242369   1.000000   1.000000
    7       -1.545145     -1.544587   1.000000   1.000000
    8       -1.536028     -1.535474   1.000000   1.000000
    9        7.749810      7.749994   0.000000   0.000000
   10        9.394031      9.393482   0.000000   0.000000
   11       10.882148     10.884131   0.000000   0.000000
   12       11.571345     11.574546   0.000000   0.000000
   13       12.282651     12.285602   0.000000   0.000000
   14       13.088572     13.090363   0.000000   0.000000
   15       16.070147     16.072278   0.000000   0.000000
   16       16.705460     16.707921   0.000000   0.000000
   17       16.733583     16.736041   0.000000   0.000000
   18       17.762768     17.764741   0.000000   0.000000
   19       20.503665     20.508051   0.000000   0.000000
   20       21.517952     21.521736   0.000000   0.000000
 
  0.2500000E+00  0.0000000E+00  0.2500000E+00  0.9523810E-02
    1      -15.218156    -15.216905   1.000000   1.000000
    2      -15.166343    -15.165103   1.000000   1.000000
    3       -3.822217     -3.821129   1.000000   1.000000
    4       -3.815157     -3.814074   1.000000   1.000000
    5       -2.719219     -2.717219   1.000000   1.000000
    6       -2.094534     -2.092542   1.000000   1.000000
    7       -1.670681     -1.670098   1.000000   1.000000
    8       -1.661754     -1.661174   1.000000   1.000000
    9        7.959896      7.960100   0.000000   0.000000
   10        9.290826      9.290542   0.000000   0.000000
   11       10.579956     10.582038   0.000000   0.000000
   12       11.469118     11.472318   0.000000   0.000000
   13       12.251453     12.254380   0.000000   0.000000
   14       13.005405     13.007034   0.000000   0.000000
   15       16.324206     16.326383   0.000000   0.000000
   16       17.135783     17.138208   0.000000   0.000000
   17       17.163835     17.166257   0.000000   0.000000
   18       17.986100     17.988089   0.000000   0.000000
   19       20.459242     20.463436   0.000000   0.000000
   20       21.205334     21.208969   0.000000   0.000000
 
  0.2647059E+00  0.0000000E+00  0.2647059E+00  0.9523810E-02
    1      -15.085811    -15.084588   1.000000   1.000000
    2      -15.037689    -15.036476   1.000000   1.000000
    3       -4.146346     -4.145191   1.000000   1.000000
    4       -4.138907     -4.137756   1.000000   1.000000
    5       -2.522583     -2.520617   1.000000   1.000000
    6       -1.937102     -1.935152   1.000000   1.000000
    7       -1.792720     -1.792113   1.000000   1.000000
    8       -1.784034     -1.783430   1.000000   1.000000
    9        8.161649      8.161885   0.000000   0.000000
   10        9.159920      9.159932   0.000000   0.000000
   11       10.288060     10.290241   0.000000   0.000000
   12       11.369263     11.372442   0.000000   0.000000
   13       12.225012     12.227902   0.000000   0.000000
   14       12.944096     12.945570   0.000000   0.000000
   15       16.577932     16.580135   0.000000   0.000000
   16       17.574517     17.576908   0.000000   0.000000
   17       17.602610     17.604998   0.000000   0.000000
   18       18.199695     18.201701   0.000000   0.000000
   19       20.351569     20.355511   0.000000   0.000000
   20       20.900772     20.904286   0.000000   0.000000
 
  0.2794118E+00  0.0000000E+00  0.2794118E+00  0.9523810E-02
    1      -14.948653    -14.947460   1.000000   1.000000
    2      -14.904317    -14.903134   1.000000   1.000000
    3       -4.468518     -4.467294   1.000000   1.000000
    4       -4.460679     -4.459460   1.000000   1.000000
    5       -2.317721     -2.315794   1.000000   1.000000
    6       -1.910487     -1.909858   1.000000   1.000000
    7       -1.902091     -1.901464   1.000000   1.000000
    8       -1.772733     -1.770830   1.000000   1.000000
    9        8.338003      8.338314   0.000000   0.000000
   10        8.999218      8.999548   0.000000   0.000000
   11       10.023431     10.025689   0.000000   0.000000
   12       11.276980     11.280121   0.000000   0.000000
   13       12.204750     12.207586   0.000000   0.000000
   14       12.906532     12.907861   0.000000   0.000000
   15       16.823759     16.825968   0.000000   0.000000
   16       18.019256     18.021612   0.000000   0.000000
   17       18.047495     18.049849   0.000000   0.000000
   18       18.398519     18.400546   0.000000   0.000000
   19       20.186137     20.189786   0.000000   0.000000
   20       20.606612     20.610004   0.000000   0.000000
 
  0.2941176E+00  0.0000000E+00  0.2941176E+00  0.9523810E-02
    1      -14.807399    -14.806239   1.000000   1.000000
    2      -14.766904    -14.765753   1.000000   1.000000
    3       -4.786865     -4.785573   1.000000   1.000000
    4       -4.778675     -4.777388   1.000000   1.000000
    5       -2.105623     -2.103740   1.000000   1.000000
    6       -2.023307     -2.022657   1.000000   1.000000
    7       -2.015256     -2.014609   1.000000   1.000000
    8       -1.602116     -1.600263   1.000000   1.000000
    9        8.452907      8.453409   0.000000   0.000000
   10        8.811105      8.811748   0.000000   0.000000
   11        9.819478      9.821730   0.000000   0.000000
   12       11.196339     11.199436   0.000000   0.000000
   13       12.192781     12.195544   0.000000   0.000000
   14       12.892734     12.893924   0.000000   0.000000
   15       17.053340     17.055532   0.000000   0.000000
   16       18.467359     18.469681   0.000000   0.000000
   17       18.495936     18.498257   0.000000   0.000000
   18       18.575531     18.577572   0.000000   0.000000
   19       19.978748     19.982135   0.000000   0.000000
   20       20.325009     20.328304   0.000000   0.000000
 
  0.3088235E+00  0.0000000E+00  0.3088235E+00  0.9523810E-02
    1      -14.662830    -14.661705   1.000000   1.000000
    2      -14.626194    -14.625078   1.000000   1.000000
    3       -5.099565     -5.098206   1.000000   1.000000
    4       -5.091132     -5.089778   1.000000   1.000000
    5       -2.130540     -2.129870   1.000000   1.000000
    6       -2.122871     -2.122204   1.000000   1.000000
    7       -1.887355     -1.885520   1.000000   1.000000
    8       -1.426067     -1.424269   1.000000   1.000000
    9        8.442068      8.443012   0.000000   0.000000
   10        8.610001      8.610905   0.000000   0.000000
   11        9.727619      9.729690   0.000000   0.000000
   12       11.129348     11.132405   0.000000   0.000000
   13       12.191757     12.194421   0.000000   0.000000
   14       12.901694     12.902753   0.000000   0.000000
   15       17.256480     17.258622   0.000000   0.000000
   16       18.717515     18.719542   0.000000   0.000000
   17       18.916138     18.918426   0.000000   0.000000
   18       18.945030     18.947321   0.000000   0.000000
   19       19.753470     19.756674   0.000000   0.000000
   20       20.060781     20.063971   0.000000   0.000000
 
  0.3235294E+00  0.0000000E+00  0.3235294E+00  0.9523810E-02
    1      -14.515969    -14.514882   1.000000   1.000000
    2      -14.483160    -14.482081   1.000000   1.000000
    3       -5.404782     -5.403356   1.000000   1.000000
    4       -5.396267     -5.394846   1.000000   1.000000
    5       -2.231636     -2.230949   1.000000   1.000000
    6       -2.224415     -2.223730   1.000000   1.000000
    7       -1.664161     -1.662380   1.000000   1.000000
    8       -1.245596     -1.243858   1.000000   1.000000
    9        8.269204      8.270613   0.000000   0.000000
   10        8.412533      8.413760   0.000000   0.000000
   11        9.770354      9.772177   0.000000   0.000000
   12       11.075992     11.079024   0.000000   0.000000
   13       12.205196     12.207727   0.000000   0.000000
   14       12.932009     12.932943   0.000000   0.000000
   15       17.419155     17.421200   0.000000   0.000000
   16       18.795574     18.797518   0.000000   0.000000
   17       19.362310     19.364569   0.000000   0.000000
   18       19.391496     19.393754   0.000000   0.000000
   19       19.546896     19.550005   0.000000   0.000000
   20       19.824902     19.828028   0.000000   0.000000
 
  0.3382353E+00  0.0000000E+00  0.3382353E+00  0.9523810E-02
    1      -14.367936    -14.366889   1.000000   1.000000
    2      -14.338951    -14.337912   1.000000   1.000000
    3       -5.700634     -5.699141   1.000000   1.000000
    4       -5.692171     -5.690683   1.000000   1.000000
    5       -2.326161     -2.325458   1.000000   1.000000
    6       -2.319403     -2.318702   1.000000   1.000000
    7       -1.437533     -1.435811   1.000000   1.000000
    8       -1.061929     -1.060254   1.000000   1.000000
    9        8.017679      8.019395   0.000000   0.000000
   10        8.182122      8.183714   0.000000   0.000000
   11        9.904078      9.905791   0.000000   0.000000
   12       11.034823     11.037848   0.000000   0.000000
   13       12.237510     12.239866   0.000000   0.000000
   14       12.982313     12.983132   0.000000   0.000000
   15       17.523158     17.525044   0.000000   0.000000
   16       18.755315     18.757120   0.000000   0.000000
   17       19.413837     19.416979   0.000000   0.000000
   18       19.638460     19.641621   0.000000   0.000000
   19       19.802435     19.804666   0.000000   0.000000
   20       19.831865     19.834094   0.000000   0.000000
 
  0.3529412E+00  0.0000000E+00  0.3529412E+00  0.9523810E-02
    1      -14.220169    -14.219165   1.000000   1.000000
    2      -14.194934    -14.193937   1.000000   1.000000
    3       -5.985099     -5.983539   1.000000   1.000000
    4       -5.976867     -5.975311   1.000000   1.000000
    5       -2.413688     -2.412971   1.000000   1.000000
    6       -2.407420     -2.406705   1.000000   1.000000