 vasp.5.4.4.18Apr17-6-g9f103f2a35 (build Mar 17 2022 15:46:19) complex          
  
 executed on             LinuxIFC date 2023.01.20  14:31:02
 running on   20 total cores
 distrk:  each k-point on   20 cores,    1 groups
 distr:  one band on NCORES_PER_BAND=   1 cores,   20 groups


--------------------------------------------------------------------------------------------------------


 INCAR:
 POTCAR:    PAW_PBE B 06Sep2000                   
 POTCAR:    PAW_PBE N 08Apr2002                   

 ----------------------------------------------------------------------------- 
|                                                                             |
|           W    W    AA    RRRRR   N    N  II  N    N   GGGG   !!!           |
|           W    W   A  A   R    R  NN   N  II  NN   N  G    G  !!!           |
|           W    W  A    A  R    R  N N  N  II  N N  N  G       !!!           |
|           W WW W  AAAAAA  RRRRR   N  N N  II  N  N N  G  GGG   !            |
|           WW  WW  A    A  R   R   N   NN  II  N   NN  G    G                |
|           W    W  A    A  R    R  N    N  II  N    N   GGGG   !!!           |
|                                                                             |
|      For optimal performance we recommend to set                            |
|        NCORE= 4 - approx SQRT( number of cores)                             |
|      NCORE specifies how many cores store one orbital (NPAR=cpu/NCORE).     |
|      This setting can  greatly improve the performance of VASP for DFT.     |
|      The default,   NCORE=1            might be grossly inefficient         |
|      on modern multi-core architectures or massively parallel machines.     |
|      Do your own testing !!!!                                               |
|      Unfortunately you need to use the default for GW and RPA calculations. |
|      (for HF NCORE is supported but not extensively tested yet)             |
|                                                                             |
 ----------------------------------------------------------------------------- 

 POTCAR:    PAW_PBE B 06Sep2000                   
   SHA256 =  a32ced30f5ae56fd4d10b4325ff17eb3e4e38ee0f4288bc219fb012fddfa6e97 B/
   COPYR  = (c) Copyright 06Sep2000 Georg Kresse                                
   COPYR  = This file is part of the software VASP. Any use, copying, and all ot
   COPYR  = If you do not have a valid VASP license, you may not use, copy or di
   VRHFIN =B: s2p1                                                              
   LEXCH  = PE                                                                  
   EATOM  =    71.1703 eV,    5.2309 Ry                                         
                                                                                
   TITEL  = PAW_PBE B 06Sep2000                                                 
   LULTRA =        F    use ultrasoft PP ?                                      
   IUNSCR =        1    unscreen: 0-lin 1-nonlin 2-no                           
   RPACOR =    1.200    partial core radius                                     
   POMASS =   10.811; ZVAL   =    3.000    mass and valenz                      
   RCORE  =    1.700    outmost cutoff radius                                   
   RWIGS  =    1.710; RWIGS  =    0.905    wigner-seitz radius (au A)           
   ENMAX  =  318.614; ENMIN  =  238.960 eV                                      
   ICORE  =        2    local potential                                         
   LCOR   =        T    correct aug charges                                     
   LPAW   =        T    paw PP                                                  
   EAUG   =  535.514                                                            
   DEXC   =    0.000                                                            
   RMAX   =    1.732    core radius for proj-oper                               
   RAUG   =    1.300    factor for augmentation sphere                          
   RDEP   =    1.757    radius for radial grids                                 
   RDEPT  =    1.436    core radius for aug-charge                              
                                                                                
   Atomic configuration                                                         
    4 entries                                                                   
     n  l   j            E        occ.                                          
     1  0  0.50      -180.5896   2.0000                                         
     2  0  0.50        -9.4431   2.0000                                         
     2  1  0.50        -3.6068   1.0000                                         
     3  2  1.50        -4.0817   0.0000                                         
   Description                                                                  
     l       E           TYP  RCUT    TYP  RCUT                                 
     0     -9.4430752     23  1.500                                             
     0      0.8675899     23  1.500                                             
     1     -3.6067955     23  1.700                                             
     1      6.1086146     23  1.700                                             
     2     -4.0817478      7  1.700                                             
  local pseudopotential read in
  partial core-charges read in
  partial kinetic energy density read in
  atomic valenz-charges read in
  non local Contribution for L=           0  read in
    real space projection operators read in
  non local Contribution for L=           0  read in
    real space projection operators read in
  non local Contribution for L=           1  read in
    real space projection operators read in
  non local Contribution for L=           1  read in
    real space projection operators read in
    PAW grid and wavefunctions read in
 
   number of l-projection  operators is LMAX  =           4
   number of lm-projection operators is LMMAX =           8
 
 POTCAR:    PAW_PBE N 08Apr2002                   
   SHA256 =  e053789ff3a61a86a1b75d8a110fcc91f86041011e7b0817c7c99e4e8a6349d7 N/
   COPYR  = (c) Copyright 08Apr2002 Georg Kresse                                
   COPYR  = This file is part of the software VASP. Any use, copying, and all ot
   COPYR  = If you do not have a valid VASP license, you may not use, copy or di
   VRHFIN =N: s2p3                                                              
   LEXCH  = PE                                                                  
   EATOM  =   264.5486 eV,   19.4438 Ry                                         
                                                                                
   TITEL  = PAW_PBE N 08Apr2002                                                 
   LULTRA =        F    use ultrasoft PP ?                                      
   IUNSCR =        1    unscreen: 0-lin 1-nonlin 2-no                           
   RPACOR =    1.200    partial core radius                                     
   POMASS =   14.001; ZVAL   =    5.000    mass and valenz                      
   RCORE  =    1.500    outmost cutoff radius                                   
   RWIGS  =    1.400; RWIGS  =    0.741    wigner-seitz radius (au A)           
   ENMAX  =  400.000; ENMIN  =  300.000 eV                                      
   ICORE  =        2    local potential                                         
   LCOR   =        T    correct aug charges                                     
   LPAW   =        T    paw PP                                                  
   EAUG   =  627.112                                                            
   DEXC   =    0.000                                                            
   RMAX   =    1.529    core radius for proj-oper                               
   RAUG   =    1.300    factor for augmentation sphere                          
   RDEP   =    1.514    radius for radial grids                                 
   RDEPT  =    1.338    core radius for aug-charge                              
                                                                                
   Atomic configuration                                                         
    4 entries                                                                   
     n  l   j            E        occ.                                          
     1  0  0.50      -384.7179   2.0000                                         
     2  0  0.50       -18.5828   2.0000                                         
     2  1  0.50        -7.0898   3.0000                                         
     3  2  1.50        -6.8029   0.0000                                         
   Description                                                                  
     l       E           TYP  RCUT    TYP  RCUT                                 
     0    -18.5828119     23  1.200                                             
     0    -13.5018863     23  1.200                                             
     1     -7.0897853     23  1.500                                             
     1      9.5240782     23  1.500                                             
     2     -6.8029130      7  1.500                                             
  local pseudopotential read in
  partial core-charges read in
  partial kinetic energy density read in
  atomic valenz-charges read in
  non local Contribution for L=           0  read in
    real space projection operators read in
  non local Contribution for L=           0  read in
    real space projection operators read in
  non local Contribution for L=           1  read in
    real space projection operators read in
  non local Contribution for L=           1  read in
    real space projection operators read in
    PAW grid and wavefunctions read in
 
   number of l-projection  operators is LMAX  =           4
   number of lm-projection operators is LMMAX =           8
 

 ----------------------------------------------------------------------------- 
|                                                                             |
|  ADVICE TO THIS USER RUNNING 'VASP/VAMP'   (HEAR YOUR MASTER'S VOICE ...):  |
|                                                                             |
|      You have a (more or less) 'small supercell' and for smaller cells      |
|      it is recommended  to use the reciprocal-space projection scheme!      |
|      The real space optimization is not  efficient for small cells and it   |
|      is also less accurate ...                                              |
|      Therefore set LREAL=.FALSE. in the  INCAR file                         |
|                                                                             |
 ----------------------------------------------------------------------------- 

 Optimization of the real space projectors (new method)

 maximal supplied QI-value         = 22.11
 optimisation between [QCUT,QGAM] = [ 11.50, 23.22] = [ 37.02,150.92] Ry 
 Optimized for a Real-space Cutoff    1.21 Angstroem

   l    n(q)    QCUT    max X(q) W(low)/X(q) W(high)/X(q)  e(spline) 
   0      8    11.497    53.033    0.18E-03    0.30E-03    0.10E-06
   0      8    11.497    34.740    0.17E-03    0.29E-03    0.10E-06
   1      8    11.497    30.949    0.20E-03    0.12E-03    0.21E-06
   1      8    11.497    19.518    0.18E-03    0.11E-03    0.19E-06
 Optimization of the real space projectors (new method)

 maximal supplied QI-value         = 25.13
 optimisation between [QCUT,QGAM] = [ 11.56, 23.12] = [ 37.43,149.72] Ry 
 Optimized for a Real-space Cutoff    1.40 Angstroem

   l    n(q)    QCUT    max X(q) W(low)/X(q) W(high)/X(q)  e(spline) 
   0     10    11.561    79.467    0.46E-04    0.78E-04    0.61E-06
   0     10    11.561    66.151    0.45E-04    0.77E-04    0.61E-06
   1      9    11.561    18.886    0.22E-03    0.13E-03    0.12E-05
   1      9    11.561    13.488    0.23E-03    0.13E-03    0.12E-05
  PAW_PBE B 06Sep2000                   :
 energy of atom  1       EATOM=  -71.1703
 kinetic energy error for atom=    0.0011 (will be added to EATOM!!)
  PAW_PBE N 08Apr2002                   :
 energy of atom  2       EATOM= -264.5486
 kinetic energy error for atom=    0.0125 (will be added to EATOM!!)
 
 
 POSCAR: B2 N2                                   
  positions in direct lattice
  velocities in cartesian coordinates
 exchange correlation table for  LEXCH =        8
   RHO(1)=    0.500       N(1)  =     2000
   RHO(2)=  100.500       N(2)  =     4000
 


--------------------------------------------------------------------------------------------------------


 ion  position               nearest neighbor table
   1  0.333  0.667  0.250-   4 1.45   4 1.45   4 1.45
   2  0.667  0.333  0.750-   3 1.45   3 1.45   3 1.45
   3  0.333  0.667  0.750-   2 1.45   2 1.45   2 1.45
   4  0.667  0.333  0.250-   1 1.45   1 1.45   1 1.45
 
  LATTYP: Found a hexagonal cell.
 ALAT       =     2.5124282281
 C/A-ratio  =     3.0676557896
  
  Lattice vectors:
  
 A1 = (   1.2562141141,  -2.1758266707,   0.0000000000)
 A2 = (   1.2562141141,   2.1758266707,   0.0000000000)
 A3 = (   0.0000000000,   0.0000000000,   7.7072650000)


Analysis of symmetry for initial positions (statically):
=====================================================================
 Subroutine PRICEL returns:
 Original cell was already a primitive cell.
 

 Routine SETGRP: Setting up the symmetry group for a 
 hexagonal supercell.


 Subroutine GETGRP returns: Found 24 space group operations
 (whereof 12 operations were pure point group operations)
 out of a pool of 24 trial point group operations.


The static configuration has the point symmetry D_3d.
 The point group associated with its full space group is D_6h.


Analysis of symmetry for dynamics (positions and initial velocities):
=====================================================================
 Subroutine PRICEL returns:
 Original cell was already a primitive cell.
 

 Routine SETGRP: Setting up the symmetry group for a 
 hexagonal supercell.


 Subroutine GETGRP returns: Found 24 space group operations
 (whereof 12 operations were pure point group operations)
 out of a pool of 24 trial point group operations.


The dynamic configuration has the point symmetry D_3d.
 The point group associated with its full space group is D_6h.


Analysis of structural, dynamic, and magnetic symmetry:
=====================================================================
 Subroutine PRICEL returns:
 Original cell was already a primitive cell.
 

 Routine SETGRP: Setting up the symmetry group for a 
 hexagonal supercell.


 Subroutine GETGRP returns: Found 24 space group operations
 (whereof 12 operations were pure point group operations)
 out of a pool of 24 trial point group operations.


The magnetic configuration has the point symmetry D_3d.
 The point group associated with its full space group is D_6h.


 Subroutine INISYM returns: Found 24 space group operations
 (whereof 12 operations are pure point group operations),
 and found     1 'primitive' translations

 
 
 KPOINTS: k-points along high symmetry lines      
  interpolating k-points between supplied coordinates
  k-points in reciprocal lattice
Space group operators:
 irot       det(A)        alpha          n_x          n_y          n_z        tau_x        tau_y        tau_z
    1     1.000000     0.000000     1.000000     0.000000     0.000000     0.000000     0.000000     0.000000
    2    -1.000000     0.000000     1.000000     0.000000     0.000000     0.000000     0.000000     0.000000
    3     1.000000   120.000000     0.000000     0.000000    -1.000000     0.000000     0.000000     0.000000
    4    -1.000000   120.000000     0.000000     0.000000    -1.000000     0.000000     0.000000     0.000000
    5     1.000000   120.000000     0.000000     0.000000     1.000000     0.000000     0.000000     0.000000
    6    -1.000000   120.000000     0.000000     0.000000     1.000000     0.000000     0.000000     0.000000
    7     1.000000   180.000000     0.500000    -0.866025     0.000000     0.000000     0.000000     0.000000
    8    -1.000000   180.000000     0.500000    -0.866025     0.000000     0.000000     0.000000     0.000000
    9     1.000000   180.000000    -0.500000    -0.866025     0.000000     0.000000     0.000000     0.000000
   10    -1.000000   180.000000    -0.500000    -0.866025     0.000000     0.000000     0.000000     0.000000
   11     1.000000   180.000000     1.000000     0.000000     0.000000     0.000000     0.000000     0.000000
   12    -1.000000   180.000000     1.000000     0.000000     0.000000     0.000000     0.000000     0.000000
   13     1.000000    60.000000     0.000000     0.000000    -1.000000     0.000000     0.000000     0.500000
   14    -1.000000    60.000000     0.000000     0.000000    -1.000000     0.000000     0.000000     0.500000
   15     1.000000   180.000000     0.000000     0.000000     1.000000     0.000000     0.000000     0.500000
   16    -1.000000   180.000000     0.000000     0.000000     1.000000     0.000000     0.000000     0.500000
   17     1.000000    60.000000     0.000000     0.000000     1.000000     0.000000     0.000000     0.500000
   18    -1.000000    60.000000     0.000000     0.000000     1.000000     0.000000     0.000000     0.500000
   19     1.000000   180.000000     0.000000     1.000000     0.000000     0.000000     0.000000     0.500000
   20    -1.000000   180.000000     0.000000     1.000000     0.000000     0.000000     0.000000     0.500000
   21     1.000000   180.000000     0.866025     0.500000     0.000000     0.000000     0.000000     0.500000
   22    -1.000000   180.000000     0.866025     0.500000     0.000000     0.000000     0.000000     0.500000
   23     1.000000   180.000000     0.866025    -0.500000     0.000000     0.000000     0.000000     0.500000
   24    -1.000000   180.000000     0.866025    -0.500000     0.000000     0.000000     0.000000     0.500000


--------------------------------------------------------------------------------------------------------




 Dimension of arrays:
   k-points           NKPTS =    105   k-points in BZ     NKDIM =    105   number of bands    NBANDS=     20
   number of dos      NEDOS =    301   number of ions     NIONS =      4
   non local maximal  LDIM  =      4   non local SUM 2l+1 LMDIM =      8
   total plane-waves  NPLWV =  24000
   max r-space proj   IRMAX =   6648   max aug-charges    IRDMAX=   9082
   dimension x,y,z NGX =    20 NGY =   20 NGZ =   60
   dimension x,y,z NGXF=    40 NGYF=   40 NGZF=  120
   support grid    NGXF=    40 NGYF=   40 NGZF=  120
   ions per type =               2   2
   NGX,Y,Z   is equivalent  to a cutoff of  13.23, 13.23, 12.94 a.u.
   NGXF,Y,Z  is equivalent  to a cutoff of  26.47, 26.47, 25.88 a.u.

 SYSTEM =  unknown system                          
 POSCAR =  B2 N2                                   

 Startparameter for this run:
   NWRITE =      2    write-flag & timer
   PREC   = accura    normal or accurate (medium, high low for compatibility)
   ISTART =      0    job   : 0-new  1-cont  2-samecut
   ICHARG =      2    charge: 1-file 2-atom 10-const
   ISPIN  =      2    spin polarized calculation?
   LNONCOLLINEAR =      F non collinear calculations
   LSORBIT =      F    spin-orbit coupling
   INIWAV =      1    electr: 0-lowe 1-rand  2-diag
   LASPH  =      T    aspherical Exc in radial PAW
   METAGGA=      F    non-selfconsistent MetaGGA calc.

 Electronic Relaxation 1
   ENCUT  =  520.0 eV  38.22 Ry    6.18 a.u.   4.67  4.67 14.33*2*pi/ulx,y,z
   ENINI  =  520.0     initial cutoff
   ENAUG  =  627.1 eV  augmentation charge cutoff
   NELM   =    100;   NELMIN=  2; NELMDL=  0     # of ELM steps 
   EDIFF  = 0.2E-03   stopping-criterion for ELM
   LREAL  =      T    real-space projection
   NLSPLINE    = F    spline interpolate recip. space projectors
   LCOMPAT=      F    compatible to vasp.4.4
   GGA_COMPAT  = T    GGA compatible to vasp.4.4-vasp.4.6
   LMAXPAW     = -100 max onsite density
   LMAXMIX     =    2 max onsite mixed and CHGCAR
   VOSKOWN=      0    Vosko Wilk Nusair interpolation
   ROPT   =   -0.00025  -0.00025
 Ionic relaxation
   EDIFFG = 0.2E-02   stopping-criterion for IOM
   NSW    =      0    number of steps for IOM
   NBLOCK =      1;   KBLOCK =      1    inner block; outer block 
   IBRION =     -1    ionic relax: 0-MD 1-quasi-New 2-CG
   NFREE  =      1    steps in history (QN), initial steepest desc. (CG)
   ISIF   =      3    stress and relaxation
   IWAVPR =     10    prediction:  0-non 1-charg 2-wave 3-comb
   ISYM   =      2    0-nonsym 1-usesym 2-fastsym
   LCORR  =      T    Harris-Foulkes like correction to forces

   POTIM  = 0.5000    time-step for ionic-motion
   TEIN   =    0.0    initial temperature
   TEBEG  =    0.0;   TEEND  =   0.0 temperature during run
   SMASS  =  -3.00    Nose mass-parameter (am)
   estimated Nose-frequenzy (Omega)   =  0.10E-29 period in steps =****** mass=  -0.144E-27a.u.
   SCALEE = 1.0000    scale energy and forces
   NPACO  =    256;   APACO  = 16.0  distance and # of slots for P.C.
   PSTRESS=    0.0 pullay stress

  Mass of Ions in am
   POMASS =  10.81 14.00
  Ionic Valenz
   ZVAL   =   3.00  5.00
  Atomic Wigner-Seitz radii
   RWIGS  =  -1.00 -1.00
  virtual crystal weights 
   VCA    =   1.00  1.00
   NELECT =      16.0000    total number of electrons
   NUPDOWN=      -1.0000    fix difference up-down

 DOS related values:
   EMIN   =  10.00;   EMAX   =-10.00  energy-range for DOS
   EFERMI =   0.00
   ISMEAR =     0;   SIGMA  =   0.05  broadening in eV -4-tet -1-fermi 0-gaus

 Electronic relaxation 2 (details)
   IALGO  =     68    algorithm
   LDIAG  =      T    sub-space diagonalisation (order eigenvalues)
   LSUBROT=      F    optimize rotation matrix (better conditioning)
   TURBO    =      0    0=normal 1=particle mesh
   IRESTART =      0    0=no restart 2=restart with 2 vectors
   NREBOOT  =      0    no. of reboots
   NMIN     =      0    reboot dimension
   EREF     =   0.00    reference energy to select bands
   IMIX   =      4    mixing-type and parameters
     AMIX     =   0.40;   BMIX     =  1.00
     AMIX_MAG =   1.60;   BMIX_MAG =  1.00
     AMIN     =   0.10
     WC   =   100.;   INIMIX=   1;  MIXPRE=   1;  MAXMIX= -45

 Intra band minimization:
   WEIMIN = 0.0000     energy-eigenvalue tresh-hold
   EBREAK =  0.25E-05  absolut break condition
   DEPER  =   0.30     relativ break condition  

   TIME   =   0.40     timestep for ELM

  volume/ion in A,a.u.               =      10.53        71.08
  Fermi-wavevector in a.u.,A,eV,Ry     =   1.185520  2.240307 19.122400  1.405457
  Thomas-Fermi vector in A             =   2.321712
 
 Write flags
   LWAVE        =      F    write WAVECAR
   LDOWNSAMPLE  =      F    k-point downsampling of WAVECAR
   LCHARG       =      T    write CHGCAR
   LVTOT        =      F    write LOCPOT, total local potential
   LVHAR        =      F    write LOCPOT, Hartree potential only
   LELF         =      F    write electronic localiz. function (ELF)
   LORBIT       =     11    0 simple, 1 ext, 2 COOP (PROOUT), +10 PAW based schemes


 Dipole corrections
   LMONO  =      F    monopole corrections only (constant potential shift)
   LDIPOL =      F    correct potential (dipole corrections)
   IDIPOL =      0    1-x, 2-y, 3-z, 4-all directions 
   EPSILON=  1.0000000 bulk dielectric constant

 Exchange correlation treatment:
   GGA     =    --    GGA type
   LEXCH   =     8    internal setting for exchange type
   VOSKOWN=      0    Vosko Wilk Nusair interpolation
   LHFCALC =     F    Hartree Fock is set to
   LHFONE  =     F    Hartree Fock one center treatment
   AEXX    =    0.0000 exact exchange contribution

 Linear response parameters
   LEPSILON=     F    determine dielectric tensor
   LRPA    =     F    only Hartree local field effects (RPA)
   LNABLA  =     F    use nabla operator in PAW spheres
   LVEL    =     F    velocity operator in full k-point grid
   LINTERFAST=   F  fast interpolation
   KINTER  =     0    interpolate to denser k-point grid
   CSHIFT  =0.1000    complex shift for real part using Kramers Kronig
   OMEGAMAX=  -1.0    maximum frequency
   DEG_THRESHOLD= 0.2000000E-02 threshold for treating states as degnerate
   RTIME   =   -0.100 relaxation time in fs
  (WPLASMAI=    0.000 imaginary part of plasma frequency in eV, 0.658/RTIME)
   DFIELD  = 0.0000000 0.0000000 0.0000000 field for delta impulse in time
 
 Orbital magnetization related:
   ORBITALMAG=     F  switch on orbital magnetization
   LCHIMAG   =     F  perturbation theory with respect to B field
   DQ        =  0.001000  dq finite difference perturbation B field
   LLRAUG    =     F  two centre corrections for induced B field



--------------------------------------------------------------------------------------------------------


 Static calculation
 charge density and potential will be updated during run
 spin polarized calculation
 RMM-DIIS sequential band-by-band and
  variant of blocked Davidson during initial phase
 perform sub-space diagonalisation
    before iterative eigenvector-optimisation
 modified Broyden-mixing scheme, WC =      100.0
 initial mixing is a Kerker type mixing with AMIX =  0.4000 and BMIX =      1.0000
 Hartree-type preconditioning will be used
 using additional bands           12
 real space projection scheme for non local part
 use partial core corrections
 calculate Harris-corrections to forces 
   (improved forces if not selfconsistent)
 use gradient corrections 
 use of overlap-Matrix (Vanderbilt PP)
 Gauss-broadening in eV      SIGMA  =   0.05


--------------------------------------------------------------------------------------------------------


  energy-cutoff  :      520.00
  volume of cell :       42.13
      direct lattice vectors                 reciprocal lattice vectors
     1.256214114 -2.175826671  0.000000000     0.398021320 -0.229797716  0.000000000
     1.256214114  2.175826671  0.000000000     0.398021320  0.229797716  0.000000000
     0.000000000  0.000000000  7.707265000     0.000000000  0.000000000  0.129747712

  length of vectors
     2.512428228  2.512428228  7.707265000     0.459595433  0.459595433  0.129747712


 
 k-points in units of 2pi/SCALE and weight: k-points along high symmetry lines      
   0.00000000  0.00000000  0.00000000       0.010
   0.00585325 -0.00337938  0.00190805       0.010
   0.01170651 -0.00675876  0.00381611       0.010
   0.01755976 -0.01013813  0.00572416       0.010
   0.02341302 -0.01351751  0.00763222       0.010
   0.02926627 -0.01689689  0.00954027       0.010
   0.03511953 -0.02027627  0.01144833       0.010
   0.04097278 -0.02365565  0.01335638       0.010
   0.04682604 -0.02703503  0.01526444       0.010
   0.05267929 -0.03041440  0.01717249       0.010
   0.05853255 -0.03379378  0.01908055       0.010
   0.06438580 -0.03717316  0.02098860       0.010
   0.07023906 -0.04055254  0.02289666       0.010
   0.07609231 -0.04393192  0.02480471       0.010
   0.08194557 -0.04731129  0.02671276       0.010
   0.08779882 -0.05069067  0.02862082       0.010
   0.09365208 -0.05407005  0.03052887       0.010
   0.09950533 -0.05744943  0.03243693       0.010
   0.10535858 -0.06082881  0.03434498       0.010
   0.11121184 -0.06420819  0.03625304       0.010
   0.11706509 -0.06758756  0.03816109       0.010
   0.12291835 -0.07096694  0.04006915       0.010
   0.12877160 -0.07434632  0.04197720       0.010
   0.13462486 -0.07772570  0.04388526       0.010
   0.14047811 -0.08110508  0.04579331       0.010
   0.14633137 -0.08448445  0.04770136       0.010
   0.15218462 -0.08786383  0.04960942       0.010
   0.15803788 -0.09124321  0.05151747       0.010
   0.16389113 -0.09462259  0.05342553       0.010
   0.16974439 -0.09800197  0.05533358       0.010
   0.17559764 -0.10138135  0.05724164       0.010
   0.18145090 -0.10476072  0.05914969       0.010
   0.18730415 -0.10814010  0.06105775       0.010
   0.19315741 -0.11151948  0.06296580       0.010
   0.19901066 -0.11489886  0.06487386       0.010
   0.19901066 -0.11489886  0.00000000       0.010
   0.20096096 -0.11151948  0.00000000       0.010
   0.20291127 -0.10814010  0.00000000       0.010
   0.20486157 -0.10476072  0.00000000       0.010
   0.20681188 -0.10138135  0.00000000       0.010
   0.20876218 -0.09800197  0.00000000       0.010
   0.21071249 -0.09462259  0.00000000       0.010
   0.21266279 -0.09124321  0.00000000       0.010
   0.21461310 -0.08786383  0.00000000       0.010
   0.21656340 -0.08448445  0.00000000       0.010
   0.21851370 -0.08110508  0.00000000       0.010
   0.22046401 -0.07772570  0.00000000       0.010
   0.22241431 -0.07434632  0.00000000       0.010
   0.22436462 -0.07096694  0.00000000       0.010
   0.22631492 -0.06758756  0.00000000       0.010
   0.22826523 -0.06420819  0.00000000       0.010
   0.23021553 -0.06082881  0.00000000       0.010
   0.23216584 -0.05744943  0.00000000       0.010
   0.23411614 -0.05407005  0.00000000       0.010
   0.23606644 -0.05069067  0.00000000       0.010
   0.23801675 -0.04731129  0.00000000       0.010
   0.23996705 -0.04393192  0.00000000       0.010
   0.24191736 -0.04055254  0.00000000       0.010
   0.24386766 -0.03717316  0.00000000       0.010
   0.24581797 -0.03379378  0.00000000       0.010
   0.24776827 -0.03041440  0.00000000       0.010
   0.24971858 -0.02703503  0.00000000       0.010
   0.25166888 -0.02365565  0.00000000       0.010
   0.25361919 -0.02027627  0.00000000       0.010
   0.25556949 -0.01689689  0.00000000       0.010
   0.25751979 -0.01351751  0.00000000       0.010
   0.25947010 -0.01013813  0.00000000       0.010
   0.26142040 -0.00675876  0.00000000       0.010
   0.26337071 -0.00337938  0.00000000       0.010
   0.26532101 -0.00000000  0.00000000       0.010
   0.26532101 -0.00000000  0.00000000       0.010
   0.25751745  0.00000000  0.00000000       0.010
   0.24971389  0.00000000  0.00000000       0.010
   0.24191033 -0.00000000  0.00000000       0.010
   0.23410678  0.00000000  0.00000000       0.010
   0.22630322  0.00000000  0.00000000       0.010
   0.21849966 -0.00000000  0.00000000       0.010
   0.21069610  0.00000000  0.00000000       0.010
   0.20289254 -0.00000000  0.00000000       0.010
   0.19508898 -0.00000000  0.00000000       0.010
   0.18728542  0.00000000  0.00000000       0.010
   0.17948186 -0.00000000  0.00000000       0.010
   0.17167830 -0.00000000  0.00000000       0.010
   0.16387474  0.00000000  0.00000000       0.010
   0.15607118 -0.00000000  0.00000000       0.010
   0.14826762 -0.00000000  0.00000000       0.010
   0.14046407  0.00000000  0.00000000       0.010
   0.13266051 -0.00000000  0.00000000       0.010
   0.12485695 -0.00000000  0.00000000       0.010
   0.11705339  0.00000000  0.00000000       0.010
   0.10924983 -0.00000000  0.00000000       0.010
   0.10144627  0.00000000  0.00000000       0.010
   0.09364271  0.00000000  0.00000000       0.010
   0.08583915 -0.00000000  0.00000000       0.010
   0.07803559 -0.00000000  0.00000000       0.010
   0.07023203  0.00000000  0.00000000       0.010
   0.06242847 -0.00000000  0.00000000       0.010
   0.05462491 -0.00000000  0.00000000       0.010
   0.04682136  0.00000000  0.00000000       0.010
   0.03901780  0.00000000  0.00000000       0.010
   0.03121424 -0.00000000  0.00000000       0.010
   0.02341068 -0.00000000  0.00000000       0.010
   0.01560712 -0.00000000  0.00000000       0.010
   0.00780356  0.00000000  0.00000000       0.010
   0.00000000  0.00000000  0.00000000       0.010
 
 k-points in reciprocal lattice and weights: k-points along high symmetry lines      
   0.00000000  0.00000000  0.00000000       0.010
   0.01470588  0.00000000  0.01470588       0.010
   0.02941176  0.00000000  0.02941176       0.010
   0.04411765  0.00000000  0.04411765       0.010
   0.05882353  0.00000000  0.05882353       0.010
   0.07352941  0.00000000  0.07352941       0.010
   0.08823529  0.00000000  0.08823529       0.010
   0.10294118  0.00000000  0.10294118       0.010
   0.11764706  0.00000000  0.11764706       0.010
   0.13235294  0.00000000  0.13235294       0.010
   0.14705882  0.00000000  0.14705882       0.010
   0.16176471  0.00000000  0.16176471       0.010
   0.17647059  0.00000000  0.17647059       0.010
   0.19117647  0.00000000  0.19117647       0.010
   0.20588235  0.00000000  0.20588235       0.010
   0.22058824  0.00000000  0.22058824       0.010
   0.23529412  0.00000000  0.23529412       0.010
   0.25000000  0.00000000  0.25000000       0.010
   0.26470588  0.00000000  0.26470588       0.010
   0.27941176  0.00000000  0.27941176       0.010
   0.29411765  0.00000000  0.29411765       0.010
   0.30882353  0.00000000  0.30882353       0.010
   0.32352941  0.00000000  0.32352941       0.010
   0.33823529  0.00000000  0.33823529       0.010
   0.35294118  0.00000000  0.35294118       0.010
   0.36764706  0.00000000  0.36764706       0.010
   0.38235294  0.00000000  0.38235294       0.010
   0.39705882  0.00000000  0.39705882       0.010
   0.41176471  0.00000000  0.41176471       0.010
   0.42647059  0.00000000  0.42647059       0.010
   0.44117647  0.00000000  0.44117647       0.010
   0.45588235  0.00000000  0.45588235       0.010
   0.47058824  0.00000000  0.47058824       0.010
   0.48529412  0.00000000  0.48529412       0.010
   0.50000000  0.00000000  0.50000000       0.010
   0.50000000  0.00000000  0.00000000       0.010
   0.49509706  0.00980294  0.00000000       0.010
   0.49019412  0.01960588  0.00000000       0.010
   0.48529118  0.02940882  0.00000000       0.010
   0.48038824  0.03921176  0.00000000       0.010
   0.47548529  0.04901471  0.00000000       0.010
   0.47058235  0.05881765  0.00000000       0.010
   0.46567941  0.06862059  0.00000000       0.010
   0.46077647  0.07842353  0.00000000       0.010
   0.45587353  0.08822647  0.00000000       0.010
   0.45097059  0.09802941  0.00000000       0.010
   0.44606765  0.10783235  0.00000000       0.010
   0.44116471  0.11763529  0.00000000       0.010
   0.43626176  0.12743824  0.00000000       0.010
   0.43135882  0.13724118  0.00000000       0.010
   0.42645588  0.14704412  0.00000000       0.010
   0.42155294  0.15684706  0.00000000       0.010
   0.41665000  0.16665000  0.00000000       0.010
   0.41174706  0.17645294  0.00000000       0.010
   0.40684412  0.18625588  0.00000000       0.010
   0.40194118  0.19605882  0.00000000       0.010
   0.39703824  0.20586176  0.00000000       0.010
   0.39213529  0.21566471  0.00000000       0.010
   0.38723235  0.22546765  0.00000000       0.010
   0.38232941  0.23527059  0.00000000       0.010
   0.37742647  0.24507353  0.00000000       0.010
   0.37252353  0.25487647  0.00000000       0.010
   0.36762059  0.26467941  0.00000000       0.010
   0.36271765  0.27448235  0.00000000       0.010
   0.35781471  0.28428529  0.00000000       0.010
   0.35291176  0.29408824  0.00000000       0.010
   0.34800882  0.30389118  0.00000000       0.010
   0.34310588  0.31369412  0.00000000       0.010
   0.33820294  0.32349706  0.00000000       0.010
   0.33330000  0.33330000  0.00000000       0.010
   0.33330000  0.33330000  0.00000000       0.010
   0.32349706  0.32349706  0.00000000       0.010
   0.31369412  0.31369412  0.00000000       0.010
   0.30389118  0.30389118  0.00000000       0.010
   0.29408824  0.29408824  0.00000000       0.010
   0.28428529  0.28428529  0.00000000       0.010
   0.27448235  0.27448235  0.00000000       0.010
   0.26467941  0.26467941  0.00000000       0.010
   0.25487647  0.25487647  0.00000000       0.010
   0.24507353  0.24507353  0.00000000       0.010
   0.23527059  0.23527059  0.00000000       0.010
   0.22546765  0.22546765  0.00000000       0.010
   0.21566471  0.21566471  0.00000000       0.010
   0.20586176  0.20586176  0.00000000       0.010
   0.19605882  0.19605882  0.00000000       0.010
   0.18625588  0.18625588  0.00000000       0.010
   0.17645294  0.17645294  0.00000000       0.010
   0.16665000  0.16665000  0.00000000       0.010
   0.15684706  0.15684706  0.00000000       0.010
   0.14704412  0.14704412  0.00000000       0.010
   0.13724118  0.13724118  0.00000000       0.010
   0.12743824  0.12743824  0.00000000       0.010
   0.11763529  0.11763529  0.00000000       0.010
   0.10783235  0.10783235  0.00000000       0.010
   0.09802941  0.09802941  0.00000000       0.010
   0.08822647  0.08822647  0.00000000       0.010
   0.07842353  0.07842353  0.00000000       0.010
   0.06862059  0.06862059  0.00000000       0.010
   0.05881765  0.05881765  0.00000000       0.010
   0.04901471  0.04901471  0.00000000       0.010
   0.03921176  0.03921176  0.00000000       0.010
   0.02940882  0.02940882  0.00000000       0.010
   0.01960588  0.01960588  0.00000000       0.010
   0.00980294  0.00980294  0.00000000       0.010
   0.00000000  0.00000000  0.00000000       0.010
 
 position of ions in fractional coordinates (direct lattice) 
   0.33333333  0.66666667  0.25000000
   0.66666667  0.33333333  0.75000000
   0.33333333  0.66666667  0.75000000
   0.66666667  0.33333333  0.25000000
 
 position of ions in cartesian coordinates  (Angst):
   1.25621411  0.72527556  1.92681625
   1.25621411 -0.72527556  5.78044875
   1.25621411  0.72527556  5.78044875
   1.25621411 -0.72527556  1.92681625
 


--------------------------------------------------------------------------------------------------------


 k-point  1 :   0.0000 0.0000 0.0000  plane waves:    1133
 k-point  2 :   0.0147 0.0000 0.0147  plane waves:    1127
 k-point  3 :   0.0294 0.0000 0.0294  plane waves:    1129
 k-point  4 :   0.0441 0.0000 0.0441  plane waves:    1130
 k-point  5 :   0.0588 0.0000 0.0588  plane waves:    1134
 k-point  6 :   0.0735 0.0000 0.0735  plane waves:    1129
 k-point  7 :   0.0882 0.0000 0.0882  plane waves:    1132
 k-point  8 :   0.1029 0.0000 0.1029  plane waves:    1136
 k-point  9 :   0.1176 0.0000 0.1176  plane waves:    1139
 k-point 10 :   0.1324 0.0000 0.1324  plane waves:    1141
 k-point 11 :   0.1471 0.0000 0.1471  plane waves:    1145
 k-point 12 :   0.1618 0.0000 0.1618  plane waves:    1145
 k-point 13 :   0.1765 0.0000 0.1765  plane waves:    1143
 k-point 14 :   0.1912 0.0000 0.1912  plane waves:    1146
 k-point 15 :   0.2059 0.0000 0.2059  plane waves:    1144
 k-point 16 :   0.2206 0.0000 0.2206  plane waves:    1140
 k-point 17 :   0.2353 0.0000 0.2353  plane waves:    1139
 k-point 18 :   0.2500 0.0000 0.2500  plane waves:    1137
 k-point 19 :   0.2647 0.0000 0.2647  plane waves:    1135
 k-point 20 :   0.2794 0.0000 0.2794  plane waves:    1137
 k-point 21 :   0.2941 0.0000 0.2941  plane waves:    1141
 k-point 22 :   0.3088 0.0000 0.3088  plane waves:    1141
 k-point 23 :   0.3235 0.0000 0.3235  plane waves:    1141
 k-point 24 :   0.3382 0.0000 0.3382  plane waves:    1137
 k-point 25 :   0.3529 0.0000 0.3529  plane waves:    1137
 k-point 26 :   0.3676 0.0000 0.3676  plane waves:    1134
 k-point 27 :   0.3824 0.0000 0.3824  plane waves:    1137
 k-point 28 :   0.3971 0.0000 0.3971  plane waves:    1139
 k-point 29 :   0.4118 0.0000 0.4118  plane waves:    1146
 k-point 30 :   0.4265 0.0000 0.4265  plane waves:    1143
 k-point 31 :   0.4412 0.0000 0.4412  plane waves:    1135
 k-point 32 :   0.4559 0.0000 0.4559  plane waves:    1124
 k-point 33 :   0.4706 0.0000 0.4706  plane waves:    1124
 k-point 34 :   0.4853 0.0000 0.4853  plane waves:    1130
 k-point 35 :   0.5000 0.0000 0.5000  plane waves:    1128
 k-point 36 :   0.5000 0.0000 0.0000  plane waves:    1140
 k-point 37 :   0.4951 0.0098 0.0000  plane waves:    1144
 k-point 38 :   0.4902 0.0196 0.0000  plane waves:    1144
 k-point 39 :   0.4853 0.0294 0.0000  plane waves:    1144
 k-point 40 :   0.4804 0.0392 0.0000  plane waves:    1140
 k-point 41 :   0.4755 0.0490 0.0000  plane waves:    1140
 k-point 42 :   0.4706 0.0588 0.0000  plane waves:    1144
 k-point 43 :   0.4657 0.0686 0.0000  plane waves:    1140
 k-point 44 :   0.4608 0.0784 0.0000  plane waves:    1140
 k-point 45 :   0.4559 0.0882 0.0000  plane waves:    1140
 k-point 46 :   0.4510 0.0980 0.0000  plane waves:    1136
 k-point 47 :   0.4461 0.1078 0.0000  plane waves:    1132
 k-point 48 :   0.4412 0.1176 0.0000  plane waves:    1124
 k-point 49 :   0.4363 0.1274 0.0000  plane waves:    1136
 k-point 50 :   0.4314 0.1372 0.0000  plane waves:    1130
 k-point 51 :   0.4265 0.1470 0.0000  plane waves:    1122
 k-point 52 :   0.4216 0.1568 0.0000  plane waves:    1126
 k-point 53 :   0.4166 0.1666 0.0000  plane waves:    1126
 k-point 54 :   0.4117 0.1765 0.0000  plane waves:    1130
 k-point 55 :   0.4068 0.1863 0.0000  plane waves:    1130
 k-point 56 :   0.4019 0.1961 0.0000  plane waves:    1134
 k-point 57 :   0.3970 0.2059 0.0000  plane waves:    1130
 k-point 58 :   0.3921 0.2157 0.0000  plane waves:    1126
 k-point 59 :   0.3872 0.2255 0.0000  plane waves:    1126
 k-point 60 :   0.3823 0.2353 0.0000  plane waves:    1122
 k-point 61 :   0.3774 0.2451 0.0000  plane waves:    1126
 k-point 62 :   0.3725 0.2549 0.0000  plane waves:    1122
 k-point 63 :   0.3676 0.2647 0.0000  plane waves:    1122
 k-point 64 :   0.3627 0.2745 0.0000  plane waves:    1122
 k-point 65 :   0.3578 0.2843 0.0000  plane waves:    1122
 k-point 66 :   0.3529 0.2941 0.0000  plane waves:    1118
 k-point 67 :   0.3480 0.3039 0.0000  plane waves:    1120
 k-point 68 :   0.3431 0.3137 0.0000  plane waves:    1128
 k-point 69 :   0.3382 0.3235 0.0000  plane waves:    1132
 k-point 70 :   0.3333 0.3333 0.0000  plane waves:    1131
 k-point 71 :   0.3333 0.3333 0.0000  plane waves:    1131
 k-point 72 :   0.3235 0.3235 0.0000  plane waves:    1127
 k-point 73 :   0.3137 0.3137 0.0000  plane waves:    1123
 k-point 74 :   0.3039 0.3039 0.0000  plane waves:    1133
 k-point 75 :   0.2941 0.2941 0.0000  plane waves:    1137
 k-point 76 :   0.2843 0.2843 0.0000  plane waves:    1137
 k-point 77 :   0.2745 0.2745 0.0000  plane waves:    1129
 k-point 78 :   0.2647 0.2647 0.0000  plane waves:    1133
 k-point 79 :   0.2549 0.2549 0.0000  plane waves:    1135
 k-point 80 :   0.2451 0.2451 0.0000  plane waves:    1135
 k-point 81 :   0.2353 0.2353 0.0000  plane waves:    1141
 k-point 82 :   0.2255 0.2255 0.0000  plane waves:    1137
 k-point 83 :   0.2157 0.2157 0.0000  plane waves:    1141
 k-point 84 :   0.2059 0.2059 0.0000  plane waves:    1145
 k-point 85 :   0.1961 0.1961 0.0000  plane waves:    1137
 k-point 86 :   0.1863 0.1863 0.0000  plane waves:    1135
 k-point 87 :   0.1765 0.1765 0.0000  plane waves:    1131
 k-point 88 :   0.1666 0.1666 0.0000  plane waves:    1135
 k-point 89 :   0.1568 0.1568 0.0000  plane waves:    1135
 k-point 90 :   0.1470 0.1470 0.0000  plane waves:    1135
 k-point 91 :   0.1372 0.1372 0.0000  plane waves:    1143
 k-point 92 :   0.1274 0.1274 0.0000  plane waves:    1139
 k-point 93 :   0.1176 0.1176 0.0000  plane waves:    1145
 k-point 94 :   0.1078 0.1078 0.0000  plane waves:    1149
 k-point 95 :   0.0980 0.0980 0.0000  plane waves:    1149
 k-point 96 :   0.0882 0.0882 0.0000  plane waves:    1145
 k-point 97 :   0.0784 0.0784 0.0000  plane waves:    1145
 k-point 98 :   0.0686 0.0686 0.0000  plane waves:    1145
 k-point 99 :   0.0588 0.0588 0.0000  plane waves:    1135
 k-point ** :   0.0490 0.0490 0.0000  plane waves:    1139
 k-point ** :   0.0392 0.0392 0.0000  plane waves:    1135
 k-point ** :   0.0294 0.0294 0.0000  plane waves:    1127
 k-point ** :   0.0196 0.0196 0.0000  plane waves:    1131
 k-point ** :   0.0098 0.0098 0.0000  plane waves:    1129
 k-point ** :   0.0000 0.0000 0.0000  plane waves:    1133

 maximum and minimum number of plane-waves per node :      1149     1118

 maximum number of plane-waves:      1149
 maximum index in each direction: 
   IXMAX=    4   IYMAX=    4   IZMAX=   14
   IXMIN=   -5   IYMIN=   -5   IZMIN=  -14


 serial   3D FFT for wavefunctions
 parallel 3D FFT for charge:
    minimum data exchange during FFTs selected (reduces bandwidth)


 total amount of memory used by VASP MPI-rank0    39123. kBytes
=======================================================================

   base      :      30000. kBytes
   nonlr-proj:       1930. kBytes
   fftplans  :        426. kBytes
   grid      :       2711. kBytes
   one-center:         24. kBytes
   wavefun   :       4032. kBytes
 
     INWAV:  cpu time    0.0000: real time    0.0032
 Broyden mixing: mesh for mixing (old mesh)
   NGX =  9   NGY =  9   NGZ = 29
  (NGX  = 40   NGY  = 40   NGZ  =120)
  gives a total of   2349 points

 initial charge density was supplied:
 charge density of overlapping atoms calculated
 number of electron      16.0000000 magnetization       2.4000000
 keeping initial charge density in first step


--------------------------------------------------------------------------------------------------------


 Maximum index for non-local projection operator         6405
 Maximum index for augmentation-charges          398 (set IRDMAX)


--------------------------------------------------------------------------------------------------------


 First call to EWALD:  gamma=   0.509
 Maximum number of real-space cells 4x 4x 2
 Maximum number of reciprocal cells 2x 2x 5

    FEWALD:  cpu time    0.0016: real time    0.0016


--------------------------------------- Iteration      1(   1)  ---------------------------------------


    POTLOK:  cpu time    0.1116: real time    0.2720
    SETDIJ:  cpu time    0.1737: real time    0.1737
     EDDAV:  cpu time    8.4776: real time    8.4796
       DOS:  cpu time    0.0078: real time    0.0078
    --------------------------------------------
      LOOP:  cpu time    8.7707: real time    8.9331

 eigenvalue-minimisations  :  8420
 total energy-change (2. order) : 0.2326731E+02  (-0.8957886E+03)
 number of electron      16.0000000 magnetization       2.4000000
 augmentation part       16.0000000 magnetization       2.4000000

 Free energy of the ion-electron system (eV)
  ---------------------------------------------------
  alpha Z        PSCENC =        33.78354689
  Ewald energy   TEWEN  =      -405.89709528
  -Hartree energ DENC   =      -245.52857033
  -exchange      EXHF   =         0.00000000
  -V(xc)+E(xc)   XCENC  =        54.17505747
  PAW double counting   =       496.68642706     -497.33517534
  entropy T*S    EENTRO =        -0.00067075
  eigenvalues    EBANDS =       -84.02678976
  atomic energy  EATOM  =       671.41057895
  Solvation  Ediel_sol  =         0.00000000
  ---------------------------------------------------
  free energy    TOTEN  =        23.26730891 eV

  energy without entropy =       23.26797966  energy(sigma->0) =       23.26764429


--------------------------------------------------------------------------------------------------------




--------------------------------------- Iteration      1(   2)  ---------------------------------------


     EDDAV:  cpu time   11.9362: real time   11.9421
       DOS:  cpu time    0.0049: real time    0.0049
    --------------------------------------------
      LOOP:  cpu time   11.9410: real time   11.9470

 eigenvalue-minimisations  : 13060
 total energy-change (2. order) :-0.6007724E+02  (-0.5844794E+02)
 number of electron      16.0000000 magnetization       2.4000000
 augmentation part       16.0000000 magnetization       2.4000000

 Free energy of the ion-electron system (eV)
  ---------------------------------------------------
  alpha Z        PSCENC =        33.78354689
  Ewald energy   TEWEN  =      -405.89709528
  -Hartree energ DENC   =      -245.52857033
  -exchange      EXHF   =         0.00000000
  -V(xc)+E(xc)   XCENC  =        54.17505747
  PAW double counting   =       496.68642706     -497.33517534
  entropy T*S    EENTRO =        -0.00000000
  eigenvalues    EBANDS =      -144.10470542
  atomic energy  EATOM  =       671.41057895
  Solvation  Ediel_sol  =         0.00000000
  ---------------------------------------------------
  free energy    TOTEN  =       -36.80993599 eV

  energy without entropy =      -36.80993599  energy(sigma->0) =      -36.80993599


--------------------------------------------------------------------------------------------------------




--------------------------------------- Iteration      1(   3)  ---------------------------------------


     EDDAV:  cpu time    8.9856: real time    8.9865
       DOS:  cpu time    0.0049: real time    0.0049
    --------------------------------------------
      LOOP:  cpu time    8.9905: real time    8.9913

 eigenvalue-minimisations  :  9060
 total energy-change (2. order) :-0.4879314E+00  (-0.4879314E+00)
 number of electron      16.0000000 magnetization       2.4000000
 augmentation part       16.0000000 magnetization       2.4000000

 Free energy of the ion-electron system (eV)
  ---------------------------------------------------
  alpha Z        PSCENC =        33.78354689
  Ewald energy   TEWEN  =      -405.89709528
  -Hartree energ DENC   =      -245.52857033
  -exchange      EXHF   =         0.00000000
  -V(xc)+E(xc)   XCENC  =        54.17505747
  PAW double counting   =       496.68642706     -497.33517534
  entropy T*S    EENTRO =        -0.00000000
  eigenvalues    EBANDS =      -144.59263684
  atomic energy  EATOM  =       671.41057895
  Solvation  Ediel_sol  =         0.00000000
  ---------------------------------------------------
  free energy    TOTEN  =       -37.29786742 eV

  energy without entropy =      -37.29786742  energy(sigma->0) =      -37.29786742


--------------------------------------------------------------------------------------------------------




--------------------------------------- Iteration      1(   4)  ---------------------------------------


     EDDAV:  cpu time   13.6239: real time   13.6293
       DOS:  cpu time    0.0048: real time    0.0048
    --------------------------------------------
      LOOP:  cpu time   13.6287: real time   13.6341

 eigenvalue-minimisations  : 15120
 total energy-change (2. order) :-0.1128764E-02  (-0.1128764E-02)
 number of electron      16.0000000 magnetization       2.4000000
 augmentation part       16.0000000 magnetization       2.4000000

 Free energy of the ion-electron system (eV)
  ---------------------------------------------------
  alpha Z        PSCENC =        33.78354689
  Ewald energy   TEWEN  =      -405.89709528
  -Hartree energ DENC   =      -245.52857033
  -exchange      EXHF   =         0.00000000
  -V(xc)+E(xc)   XCENC  =        54.17505747
  PAW double counting   =       496.68642706     -497.33517534
  entropy T*S    EENTRO =        -0.00000000
  eigenvalues    EBANDS =      -144.59376561
  atomic energy  EATOM  =       671.41057895
  Solvation  Ediel_sol  =         0.00000000
  ---------------------------------------------------
  free energy    TOTEN  =       -37.29899618 eV

  energy without entropy =      -37.29899618  energy(sigma->0) =      -37.29899618


--------------------------------------------------------------------------------------------------------




--------------------------------------- Iteration      1(   5)  ---------------------------------------


     EDDAV:  cpu time    8.9659: real time    8.9673
       DOS:  cpu time    0.0047: real time    0.0047
    CHARGE:  cpu time    0.1095: real time    0.1095
    MIXING:  cpu time    0.0017: real time    0.0017
    --------------------------------------------
      LOOP:  cpu time    9.0818: real time    9.0832

 eigenvalue-minimisations  :  9040
 total energy-change (2. order) :-0.7876008E-07  (-0.7876054E-07)
 number of electron      16.0000000 magnetization       0.8668630
 augmentation part        0.6556051 magnetization       0.8699408

 Broyden mixing:
  rms(total) = 0.13107E+01    rms(broyden)= 0.13104E+01
  rms(prec ) = 0.18244E+01
  weight for this iteration     100.00

 Free energy of the ion-electron system (eV)
  ---------------------------------------------------
  alpha Z        PSCENC =        33.78354689
  Ewald energy   TEWEN  =      -405.89709528
  -Hartree energ DENC   =      -245.52857033
  -exchange      EXHF   =         0.00000000
  -V(xc)+E(xc)   XCENC  =        54.17505747
  PAW double counting   =       496.68642706     -497.33517534
  entropy T*S    EENTRO =        -0.00000000
  eigenvalues    EBANDS =      -144.59376569
  atomic energy  EATOM  =       671.41057895
  Solvation  Ediel_sol  =         0.00000000
  ---------------------------------------------------
  free energy    TOTEN  =       -37.29899626 eV

  energy without entropy =      -37.29899626  energy(sigma->0) =      -37.29899626


--------------------------------------------------------------------------------------------------------




--------------------------------------- Iteration      1(   6)  ---------------------------------------


    POTLOK:  cpu time    0.1093: real time    0.1093
    SETDIJ:  cpu time    0.1732: real time    0.1732
    EDDIAG:  cpu time    3.0267: real time    3.0268
  RMM-DIIS:  cpu time    1.5821: real time    1.5824
    ORTHCH:  cpu time    0.8636: real time    0.8637
       DOS:  cpu time    0.0050: real time    0.0050
    CHARGE:  cpu time    0.1058: real time    0.1058
    MIXING:  cpu time    0.0019: real time    0.0019
    --------------------------------------------
      LOOP:  cpu time    5.8676: real time    5.8681

 eigenvalue-minimisations  :  8588
 total energy-change (2. order) : 0.3324121E+01  (-0.3983307E+00)
 number of electron      16.0000000 magnetization       0.2367288
 augmentation part        0.5240712 magnetization       0.2238581

 Broyden mixing:
  rms(total) = 0.56196E+00    rms(broyden)= 0.56189E+00
  rms(prec ) = 0.70408E+00
  weight for this iteration     100.00

 eigenvalues of (default mixing * dielectric matrix)
  average eigenvalue GAMMA=   0.9988
  0.9988

 Free energy of the ion-electron system (eV)
  ---------------------------------------------------
  alpha Z        PSCENC =        33.78354689
  Ewald energy   TEWEN  =      -405.89709528
  -Hartree energ DENC   =      -276.86486668
  -exchange      EXHF   =         0.00000000
  -V(xc)+E(xc)   XCENC  =        56.01947387
  PAW double counting   =       900.21484172     -901.36575890
  entropy T*S    EENTRO =        -0.00000000
  eigenvalues    EBANDS =      -111.27559609
  atomic energy  EATOM  =       671.41057895
  Solvation  Ediel_sol  =         0.00000000
  ---------------------------------------------------
  free energy    TOTEN  =       -33.97487553 eV

  energy without entropy =      -33.97487553  energy(sigma->0) =      -33.97487553


--------------------------------------------------------------------------------------------------------




--------------------------------------- Iteration      1(   7)  ---------------------------------------


    POTLOK:  cpu time    0.1109: real time    0.1115
    SETDIJ:  cpu time    0.1730: real time    0.1730
    EDDIAG:  cpu time    3.0207: real time    3.0208
  RMM-DIIS:  cpu time    1.6657: real time    1.6658
    ORTHCH:  cpu time    0.8677: real time    0.8680
       DOS:  cpu time    0.0047: real time    0.0047
    CHARGE:  cpu time    0.1049: real time    0.1050
    MIXING:  cpu time    0.0019: real time    0.0019
    --------------------------------------------
      LOOP:  cpu time    5.9496: real time    5.9506

 eigenvalue-minimisations  :  9025
 total energy-change (2. order) : 0.8534161E-01  (-0.4124512E-01)
 number of electron      16.0000000 magnetization      -0.0787044
 augmentation part        0.5021457 magnetization      -0.0828901

 Broyden mixing:
  rms(total) = 0.32757E+00    rms(broyden)= 0.32755E+00
  rms(prec ) = 0.39158E+00
  weight for this iteration     100.00

 eigenvalues of (default mixing * dielectric matrix)
  average eigenvalue GAMMA=   1.3300
  0.9712  1.6889

 Free energy of the ion-electron system (eV)
  ---------------------------------------------------
  alpha Z        PSCENC =        33.78354689
  Ewald energy   TEWEN  =      -405.89709528
  -Hartree energ DENC   =      -287.22137568
  -exchange      EXHF   =         0.00000000
  -V(xc)+E(xc)   XCENC  =        56.38246614
  PAW double counting   =      1274.20548541    -1275.56712357
  entropy T*S    EENTRO =        -0.00000000
  eigenvalues    EBANDS =      -100.98601677
  atomic energy  EATOM  =       671.41057895
  Solvation  Ediel_sol  =         0.00000000
  ---------------------------------------------------
  free energy    TOTEN  =       -33.88953392 eV

  energy without entropy =      -33.88953392  energy(sigma->0) =      -33.88953392


--------------------------------------------------------------------------------------------------------




--------------------------------------- Iteration      1(   8)  ---------------------------------------


    POTLOK:  cpu time    0.1100: real time    0.1108
    SETDIJ:  cpu time    0.1731: real time    0.1733
    EDDIAG:  cpu time    3.0247: real time    3.0248
  RMM-DIIS:  cpu time    1.6158: real time    1.6159
    ORTHCH:  cpu time    0.8632: real time    0.8632
       DOS:  cpu time    0.0048: real time    0.0048
    CHARGE:  cpu time    0.1042: real time    0.1043
    MIXING:  cpu time    0.0021: real time    0.0021
    --------------------------------------------
      LOOP:  cpu time    5.8979: real time    5.8991

 eigenvalue-minimisations  :  9010
 total energy-change (2. order) : 0.8177773E-01  (-0.1716761E-01)
 number of electron      16.0000000 magnetization      -0.0677771
 augmentation part        0.4996866 magnetization      -0.0664346

 Broyden mixing:
  rms(total) = 0.97374E-01    rms(broyden)= 0.97360E-01
  rms(prec ) = 0.10726E+00
  weight for this iteration     100.00

 eigenvalues of (default mixing * dielectric matrix)
  average eigenvalue GAMMA=   1.3702
  2.3125  1.0480  0.7502

 Free energy of the ion-electron system (eV)
  ---------------------------------------------------
  alpha Z        PSCENC =        33.78354689
  Ewald energy   TEWEN  =      -405.89709528
  -Hartree energ DENC   =      -294.38864886
  -exchange      EXHF   =         0.00000000
  -V(xc)+E(xc)   XCENC  =        56.72583166
  PAW double counting   =      1729.23726819    -1730.73848289
  entropy T*S    EENTRO =        -0.00000000
  eigenvalues    EBANDS =       -93.94075485
  atomic energy  EATOM  =       671.41057895
  Solvation  Ediel_sol  =         0.00000000
  ---------------------------------------------------
  free energy    TOTEN  =       -33.80775619 eV

  energy without entropy =      -33.80775619  energy(sigma->0) =      -33.80775619


--------------------------------------------------------------------------------------------------------




--------------------------------------- Iteration      1(   9)  ---------------------------------------


    POTLOK:  cpu time    0.1083: real time    0.1083
    SETDIJ:  cpu time    0.1727: real time    0.1727
    EDDIAG:  cpu time    3.0174: real time    3.0180
  RMM-DIIS:  cpu time    1.6017: real time    1.6022
    ORTHCH:  cpu time    0.8671: real time    0.8671
       DOS:  cpu time    0.0050: real time    0.0050
    CHARGE:  cpu time    0.1062: real time    0.1062
    MIXING:  cpu time    0.0020: real time    0.0020
    --------------------------------------------
      LOOP:  cpu time    5.8804: real time    5.8815

 eigenvalue-minimisations  :  9031
 total energy-change (2. order) :-0.9959412E-02  (-0.2080678E-02)
 number of electron      16.0000000 magnetization      -0.0238596
 augmentation part        0.4983773 magnetization      -0.0231530

 Broyden mixing:
  rms(total) = 0.35310E-01    rms(broyden)= 0.35306E-01
  rms(prec ) = 0.42096E-01
  weight for this iteration     100.00

 eigenvalues of (default mixing * dielectric matrix)
  average eigenvalue GAMMA=   1.2797
  2.3788  1.1498  0.9447  0.6455

 Free energy of the ion-electron system (eV)
  ---------------------------------------------------
  alpha Z        PSCENC =        33.78354689
  Ewald energy   TEWEN  =      -405.89709528
  -Hartree energ DENC   =      -296.00467568
  -exchange      EXHF   =         0.00000000
  -V(xc)+E(xc)   XCENC  =        56.80530639
  PAW double counting   =      1832.13535621    -1833.66872509
  entropy T*S    EENTRO =        -0.00000000
  eigenvalues    EBANDS =       -92.38200800
  atomic energy  EATOM  =       671.41057895
  Solvation  Ediel_sol  =         0.00000000
  ---------------------------------------------------
  free energy    TOTEN  =       -33.81771560 eV

  energy without entropy =      -33.81771560  energy(sigma->0) =      -33.81771560


--------------------------------------------------------------------------------------------------------




--------------------------------------- Iteration      1(  10)  ---------------------------------------


    POTLOK:  cpu time    0.1078: real time    0.1086
    SETDIJ:  cpu time    0.1722: real time    0.1726
    EDDIAG:  cpu time    3.0259: real time    3.0263
  RMM-DIIS:  cpu time    1.7258: real time    1.7259
    ORTHCH:  cpu time    0.8555: real time    0.8558
       DOS:  cpu time    0.0055: real time    0.0055
    CHARGE:  cpu time    0.1061: real time    0.1060
    MIXING:  cpu time    0.0020: real time    0.0020
    --------------------------------------------
      LOOP:  cpu time    6.0007: real time    6.0027

 eigenvalue-minimisations  :  9099
 total energy-change (2. order) :-0.1624957E-02  (-0.1182837E-03)
 number of electron      16.0000000 magnetization       0.0107872
 augmentation part        0.4974851 magnetization       0.0113282

 Broyden mixing:
  rms(total) = 0.16988E-01    rms(broyden)= 0.16986E-01
  rms(prec ) = 0.21271E-01
  weight for this iteration     100.00

 eigenvalues of (default mixing * dielectric matrix)
  average eigenvalue GAMMA=   1.3134
  2.3794  1.6888  1.0512  0.8245  0.6231

 Free energy of the ion-electron system (eV)
  ---------------------------------------------------
  alpha Z        PSCENC =        33.78354689
  Ewald energy   TEWEN  =      -405.89709528
  -Hartree energ DENC   =      -296.28251452
  -exchange      EXHF   =         0.00000000
  -V(xc)+E(xc)   XCENC  =        56.82437453
  PAW double counting   =      1846.20647332    -1847.73593949
  entropy T*S    EENTRO =        -0.00000000
  eigenvalues    EBANDS =       -92.12876496
  atomic energy  EATOM  =       671.41057895
  Solvation  Ediel_sol  =         0.00000000
  ---------------------------------------------------
  free energy    TOTEN  =       -33.81934056 eV

  energy without entropy =      -33.81934056  energy(sigma->0) =      -33.81934056


--------------------------------------------------------------------------------------------------------




--------------------------------------- Iteration      1(  11)  ---------------------------------------


    POTLOK:  cpu time    0.1076: real time    0.1076
    SETDIJ:  cpu time    0.1715: real time    0.1715
    EDDIAG:  cpu time    3.0219: real time    3.0223
  RMM-DIIS:  cpu time    1.5446: real time    1.5450
    ORTHCH:  cpu time    0.8662: real time    0.8662
       DOS:  cpu time    0.0048: real time    0.0048
    CHARGE:  cpu time    0.1057: real time    0.1057
    MIXING:  cpu time    0.0022: real time    0.0022
    --------------------------------------------
      LOOP:  cpu time    5.8246: real time    5.8254

 eigenvalue-minimisations  :  8428
 total energy-change (2. order) :-0.1086236E-02  (-0.8545014E-04)
 number of electron      16.0000000 magnetization       0.0061636
 augmentation part        0.4973926 magnetization       0.0060405

 Broyden mixing:
  rms(total) = 0.60595E-02    rms(broyden)= 0.60586E-02
  rms(prec ) = 0.77810E-02
  weight for this iteration     100.00

 eigenvalues of (default mixing * dielectric matrix)
  average eigenvalue GAMMA=   1.2908
  2.4178  1.9725  0.9813  0.9813  0.7702  0.6216

 Free energy of the ion-electron system (eV)
  ---------------------------------------------------
  alpha Z        PSCENC =        33.78354689
  Ewald energy   TEWEN  =      -405.89709528
  -Hartree energ DENC   =      -296.37240652
  -exchange      EXHF   =         0.00000000
  -V(xc)+E(xc)   XCENC  =        56.83270776
  PAW double counting   =      1854.18310764    -1855.70439662
  entropy T*S    EENTRO =        -0.00000000
  eigenvalues    EBANDS =       -92.05646961
  atomic energy  EATOM  =       671.41057895
  Solvation  Ediel_sol  =         0.00000000
  ---------------------------------------------------
  free energy    TOTEN  =       -33.82042680 eV

  energy without entropy =      -33.82042680  energy(sigma->0) =      -33.82042680


--------------------------------------------------------------------------------------------------------




--------------------------------------- Iteration      1(  12)  ---------------------------------------


    POTLOK:  cpu time    0.1093: real time    0.1093
    SETDIJ:  cpu time    0.1717: real time    0.1717
    EDDIAG:  cpu time    3.0286: real time    3.0293
  RMM-DIIS:  cpu time    1.3927: real time    1.3937
    ORTHCH:  cpu time    0.8636: real time    0.8636
       DOS:  cpu time    0.0053: real time    0.0053
    --------------------------------------------
      LOOP:  cpu time    5.5711: real time    5.5729

 eigenvalue-minimisations  :  6686
 total energy-change (2. order) :-0.1893787E-03  (-0.9051834E-05)
 number of electron      16.0000000 magnetization       0.0061636
 augmentation part        0.4973926 magnetization       0.0060405

 Free energy of the ion-electron system (eV)
  ---------------------------------------------------
  alpha Z        PSCENC =        33.78354689
  Ewald energy   TEWEN  =      -405.89709528
  -Hartree energ DENC   =      -296.38051805
  -exchange      EXHF   =         0.00000000
  -V(xc)+E(xc)   XCENC  =        56.83304048
  PAW double counting   =      1855.49694123    -1857.01626062
  entropy T*S    EENTRO =        -0.00000000
  eigenvalues    EBANDS =       -92.05084978
  atomic energy  EATOM  =       671.41057895
  Solvation  Ediel_sol  =         0.00000000
  ---------------------------------------------------
  free energy    TOTEN  =       -33.82061618 eV

  energy without entropy =      -33.82061618  energy(sigma->0) =      -33.82061618


--------------------------------------------------------------------------------------------------------




 average (electrostatic) potential at core
  the test charge radii are     0.7672  0.7089
  (the norm of the test charge is              1.0000)
       1 -30.2252       2 -30.2252       3 -65.7009       4 -65.7009
 
 
 
 E-fermi :   1.6090     XC(G=0):  -9.0536     alpha+bet : -9.3930


 spin component 1

 k-point     1 :       0.0000    0.0000    0.0000
  band No.  band energies     occupation 
      1     -16.3878      1.00000
      2     -16.3003      1.00000
      3      -4.4433      1.00000
      4      -3.4505      1.00000
      5      -0.0502      1.00000
      6      -0.0502      1.00000
      7      -0.0427      1.00000
      8      -0.0427      1.00000
      9       5.7412      0.00000
     10       9.8002      0.00000
     11      12.1660      0.00000
     12      12.6772      0.00000
     13      12.6772      0.00000
     14      12.7107      0.00000
     15      12.7107      0.00000
     16      13.8952      0.00000
     17      15.1448      0.00000
     18      15.9061      0.00000
     19      18.9227      0.00000
     20      24.6844      0.00000

 k-point     2 :       0.0147    0.0000    0.0147
  band No.  band energies     occupation 
      1     -16.3836      1.00000
      2     -16.2962      1.00000
      3      -4.4371      1.00000
      4      -3.4457      1.00000
      5      -0.0685      1.00000
      6      -0.0613      1.00000
      7      -0.0587      1.00000
      8      -0.0513      1.00000
      9       5.7506      0.00000
     10       9.7980      0.00000
     11      12.1751      0.00000
     12      12.6743      0.00000
     13      12.6962      0.00000
     14      12.7139      0.00000
     15      12.7297      0.00000
     16      13.8809      0.00000
     17      15.1598      0.00000
     18      15.8930      0.00000
     19      18.9357      0.00000
     20      24.6698      0.00000

 k-point     3 :       0.0294    0.0000    0.0294
  band No.  band energies     occupation 
      1     -16.3709      1.00000
      2     -16.2839      1.00000
      3      -4.4186      1.00000
      4      -3.4314      1.00000
      5      -0.1231      1.00000
      6      -0.1167      1.00000
      7      -0.0843      1.00000
      8      -0.0767      1.00000
      9       5.7788      0.00000
     10       9.7918      0.00000
     11      12.1996      0.00000
     12      12.6670      0.00000
     13      12.7241      0.00000
     14      12.7528      0.00000
     15      12.7862      0.00000
     16      13.8382      0.00000
     17      15.2044      0.00000
     18      15.8540      0.00000
     19      18.9738      0.00000
     20      24.6264      0.00000

 k-point     4 :       0.0441    0.0000    0.0441
  band No.  band energies     occupation 
      1     -16.3497      1.00000
      2     -16.2634      1.00000
      3      -4.3876      1.00000
      4      -3.4074      1.00000
      5      -0.2129      1.00000
      6      -0.2078      1.00000
      7      -0.1261      1.00000
      8      -0.1184      1.00000
      9       5.8254      0.00000
     10       9.7821      0.00000
     11      12.2307      0.00000
     12      12.6567      0.00000
     13      12.7469      0.00000
     14      12.8465      0.00000
     15      12.8796      0.00000
     16      13.7680      0.00000
     17      15.2772      0.00000
     18      15.7910      0.00000
     19      19.0359      0.00000
     20      24.5548      0.00000

 k-point     5 :       0.0588    0.0000    0.0588
  band No.  band energies     occupation 
      1     -16.3201      1.00000
      2     -16.2348      1.00000
      3      -4.3444      1.00000
      4      -3.3739      1.00000
      5      -0.3363      1.00000
      6      -0.3326      1.00000
      7      -0.1835      1.00000
      8      -0.1756      1.00000
      9       5.8897      0.00000
     10       9.7697      0.00000
     11      12.2557      0.00000
     12      12.6435      0.00000
     13      12.7930      0.00000
     14      12.9762      0.00000
     15      13.0091      0.00000
     16      13.6711      0.00000
     17      15.3764      0.00000
     18      15.7067      0.00000
     19      19.1199      0.00000
     20      24.4562      0.00000

 k-point     6 :       0.0735    0.0000    0.0735
  band No.  band energies     occupation 
      1     -16.2821      1.00000
      2     -16.1981      1.00000
      3      -4.2889      1.00000
      4      -3.3309      1.00000
      5      -0.4913      1.00000
      6      -0.4886      1.00000
      7      -0.2551      1.00000
      8      -0.2470      1.00000
      9       5.9709      0.00000
     10       9.7555      0.00000
     11      12.2632      0.00000
     12      12.6264      0.00000
     13      12.8711      0.00000
     14      13.1408      0.00000
     15      13.1732      0.00000
     16      13.5488      0.00000
     17      15.4998      0.00000
     18      15.6052      0.00000
     19      19.2232      0.00000
     20      24.3315      0.00000

 k-point     7 :       0.0882    0.0000    0.0882
  band No.  band energies     occupation 
      1     -16.2359      1.00000
      2     -16.1533      1.00000
      3      -4.2213      1.00000
      4      -3.2784      1.00000
      5      -0.6755      1.00000
      6      -0.6731      1.00000
      7      -0.3396      1.00000
      8      -0.3312      1.00000
      9       6.0683      0.00000
     10       9.7401      0.00000
     11      12.2503      0.00000
     12      12.6048      0.00000
     13      12.9798      0.00000
     14      13.3384      0.00000
     15      13.3704      0.00000
     16      13.4021      0.00000
     17      15.4919      0.00000
     18      15.6450      0.00000
     19      19.3429      0.00000
     20      24.1811      0.00000

 k-point     8 :       0.1029    0.0000    0.1029
  band No.  band energies     occupation 
      1     -16.1814      1.00000
      2     -16.1006      1.00000
      3      -4.1415      1.00000
      4      -3.2165      1.00000
      5      -0.8861      1.00000
      6      -0.8831      1.00000
      7      -0.4354      1.00000
      8      -0.4268      1.00000
      9       6.1810      0.00000
     10       9.7239      0.00000
     11      12.2204      0.00000
     12      12.5785      0.00000
     13      13.1090      0.00000
     14      13.2327      0.00000
     15      13.5673      0.00000
     16      13.5989      0.00000
     17      15.3744      0.00000
     18      15.8096      0.00000
     19      19.4758      0.00000
     20      24.0055      0.00000

 k-point     9 :       0.1176    0.0000    0.1176
  band No.  band energies     occupation 
      1     -16.1188      1.00000
      2     -16.0400      1.00000
      3      -4.0499      1.00000
      4      -3.1452      1.00000
      5      -1.1199      1.00000
      6      -1.1162      1.00000
      7      -0.5409      1.00000
      8      -0.5321      1.00000
      9       6.3083      0.00000
     10       9.7068      0.00000
     11      12.1779      0.00000
     12      12.5472      0.00000
     13      13.0424      0.00000
     14      13.2441      0.00000
     15      13.8256      0.00000
     16      13.8568      0.00000
     17      15.2635      0.00000
     18      15.9912      0.00000
     19      19.6184      0.00000
     20      23.8049      0.00000

 k-point    10 :       0.1324    0.0000    0.1324
  band No.  band energies     occupation 
      1     -16.0482      1.00000
      2     -15.9716      1.00000
      3      -3.9465      1.00000
      4      -3.0646      1.00000
      5      -1.3737      1.00000
      6      -1.3694      1.00000
      7      -0.6544      1.00000
      8      -0.6454      1.00000
      9       6.4494      0.00000
     10       9.6885      0.00000
     11      12.1261      0.00000
     12      12.5089      0.00000
     13      12.8353      0.00000
     14      13.3670      0.00000
     15      14.1114      0.00000
     16      14.1421      0.00000
     17      15.1749      0.00000
     18      16.1873      0.00000
     19      19.7671      0.00000
     20      23.5797      0.00000

 k-point    11 :       0.1471    0.0000    0.1471
  band No.  band energies     occupation 
      1     -15.9697      1.00000
      2     -15.8956      1.00000
      3      -3.8315      1.00000
      4      -2.9748      1.00000
      5      -1.6447      1.00000
      6      -1.6400      1.00000
      7      -0.7743      1.00000
      8      -0.7651      1.00000
      9       6.6035      0.00000
     10       9.6683      0.00000
     11      12.0670      0.00000
     12      12.4498      0.00000
     13      12.6271      0.00000
     14      13.4561      0.00000
     15      14.4225      0.00000
     16      14.4527      0.00000
     17      15.1298      0.00000
     18      16.3955      0.00000
     19      19.9177      0.00000
     20      23.3308      0.00000

 k-point    12 :       0.1618    0.0000    0.1618
  band No.  band energies     occupation 
      1     -15.8835      1.00000
      2     -15.8121      1.00000
      3      -3.7051      1.00000
      4      -2.8762      1.00000
      5      -1.9300      1.00000
      6      -1.9252      1.00000
      7      -0.8989      1.00000
      8      -0.8897      1.00000
      9       6.7700      0.00000
     10       9.6449      0.00000
     11      12.0013      0.00000
     12      12.2952      0.00000
     13      12.4950      0.00000
     14      13.4918      0.00000
     15      14.7568      0.00000
     16      14.7867      0.00000
     17      15.1486      0.00000
     18      16.6133      0.00000
     19      20.0655      0.00000
     20      23.0602      0.00000

 k-point    13 :       0.1765    0.0000    0.1765
  band No.  band energies     occupation 
      1     -15.7898      1.00000
      2     -15.7212      1.00000
      3      -3.5677      1.00000
      4      -2.7694      1.00000
      5      -2.2269      1.00000
      6      -2.2219      1.00000
      7      -1.0269      1.00000
      8      -1.0175      1.00000
      9       6.9481      0.00000
     10       9.6165      0.00000
     11      11.9284      0.00000
     12      12.0494      0.00000
     13      12.4379      0.00000
     14      13.4676      0.00000
     15      15.1124      0.00000
     16      15.1418      0.00000
     17      15.2395      0.00000
     18      16.8385      0.00000
     19      20.2048      0.00000
     20      22.7707      0.00000

 k-point    14 :       0.1912    0.0000    0.1912
  band No.  band energies     occupation 
      1     -15.6888      1.00000
      2     -15.6233      1.00000
      3      -3.4198      1.00000
      4      -2.6639      1.00000
      5      -2.5321      1.00000
      6      -2.5191      1.00000
      7      -1.1567      1.00000
      8      -1.1474      1.00000
      9       7.1367      0.00000
     10       9.5807      0.00000
     11      11.7713      0.00000
     12      11.8530      0.00000
     13      12.3945      0.00000
     14      13.3951      0.00000
     15      15.3939      0.00000
     16      15.4871      0.00000
     17      15.5161      0.00000
     18      17.0685      0.00000
     19      20.3282      0.00000
     20      22.4667      0.00000

 k-point    15 :       0.2059    0.0000    0.2059
  band No.  band energies     occupation 
      1     -15.5808      1.00000
      2     -15.5185      1.00000
      3      -3.2630      1.00000
      4      -2.8557      1.00000
      5      -2.8436      1.00000
      6      -2.5169      1.00000
      7      -1.2872      1.00000
      8      -1.2778      1.00000
      9       7.3345      0.00000
     10       9.5344      0.00000
     11      11.4837      0.00000
     12      11.7651      0.00000
     13      12.3548      0.00000
     14      13.2955      0.00000
     15      15.5940      0.00000
     16      15.8789      0.00000
     17      15.9075      0.00000
     18      17.3009      0.00000
     19      20.4267      0.00000
     20      22.1532      0.00000

 k-point    16 :       0.2206    0.0000    0.2206
  band No.  band energies     occupation 
      1     -15.4661      1.00000
      2     -15.4072      1.00000
      3      -3.1894      1.00000
      4      -3.1709      1.00000
      5      -3.0694      1.00000
      6      -2.3860      1.00000
      7      -1.4170      1.00000
      8      -1.4077      1.00000
      9       7.5398      0.00000
     10       9.4736      0.00000
     11      11.1854      0.00000
     12      11.6711      0.00000
     13      12.3174      0.00000
     14      13.1885      0.00000
     15      15.8237      0.00000
     16      16.2857      0.00000
     17      16.3141      0.00000
     18      17.5334      0.00000
     19      20.4893      0.00000
     20      21.8353      0.00000

 k-point    17 :       0.2353    0.0000    0.2353
  band No.  band energies     occupation 
      1     -15.3451      1.00000
      2     -15.2897      1.00000
      3      -3.4984      1.00000
      4      -3.4914      1.00000
      5      -2.9062      1.00000
      6      -2.2444      1.00000
      7      -1.5451      1.00000
      8      -1.5360      1.00000
      9       7.7498      0.00000
     10       9.3940      0.00000
     11      10.8821      0.00000
     12      11.5713      0.00000
     13      12.2827      0.00000
     14      13.0886      0.00000
     15      16.0701      0.00000
     16      16.7055      0.00000
     17      16.7336      0.00000
     18      17.7628      0.00000
     19      20.5037      0.00000
     20      21.5180      0.00000

 k-point    18 :       0.2500    0.0000    0.2500
  band No.  band energies     occupation 
      1     -15.2182      1.00000
[...]
      4      -2.6316      1.00000
      5      -2.6249      1.00000
      6      -2.4349      1.00000
      7      -1.5018      1.00000
      8      -1.4901      1.00000
      9       7.0683      0.00000
     10       9.8380      0.00000
     11      11.5311      0.00000
     12      12.7629      0.00000
     13      12.8239      0.00000
     14      13.3620      0.00000
     15      14.2922      0.00000
     16      14.8404      0.00000
     17      16.0696      0.00000
     18      17.8279      0.00000
     19      20.3242      0.00000
     20      22.5701      0.00000

 k-point    94 :       0.1078    0.1078    0.0000
  band No.  band energies     occupation 
      1     -15.7247      1.00000
      2     -15.6450      1.00000
      3      -3.5305      1.00000
      4      -2.5930      1.00000
      5      -2.3085      1.00000
      6      -2.3020      1.00000
      7      -1.2938      1.00000
      8      -1.2827      1.00000
      9       6.8680      0.00000
     10       9.8864      0.00000
     11      11.8687      0.00000
     12      12.6572      0.00000
     13      12.7492      0.00000
     14      13.2602      0.00000
     15      14.4502      0.00000
     16      14.6421      0.00000
     17      15.6277      0.00000
     18      17.4044      0.00000
     19      20.1516      0.00000
     20      22.9126      0.00000

 k-point    95 :       0.0980    0.0980    0.0000
  band No.  band energies     occupation 
      1     -15.8373      1.00000
      2     -15.7561      1.00000
      3      -3.6863      1.00000
      4      -2.7386      1.00000
      5      -1.9911      1.00000
      6      -1.9848      1.00000
      7      -1.0965      1.00000
      8      -1.0861      1.00000
      9       6.6830      0.00000
     10       9.9116      0.00000
     11      12.1898      0.00000
     12      12.5666      0.00000
     13      12.6911      0.00000
     14      13.1657      0.00000
     15      14.4299      0.00000
     16      14.6259      0.00000
     17      15.1937      0.00000
     18      17.0128      0.00000
     19      19.9802      0.00000
     20      23.2271      0.00000

 k-point    96 :       0.0882    0.0882    0.0000
  band No.  band energies     occupation 
      1     -15.9400      1.00000
      2     -15.8576      1.00000
      3      -3.8281      1.00000
      4      -2.8714      1.00000
      5      -1.6826      1.00000
      6      -1.6769      1.00000
      7      -0.9116      1.00000
      8      -0.9018      1.00000
      9       6.5133      0.00000
     10       9.9189      0.00000
     11      12.4901      0.00000
     12      12.4913      0.00000
     13      12.6491      0.00000
     14      13.0790      0.00000
     15      14.2050      0.00000
     16      14.7737      0.00000
     17      14.8120      0.00000
     18      16.6575      0.00000
     19      19.8130      0.00000
     20      23.5116      0.00000

 k-point    97 :       0.0784    0.0784    0.0000
  band No.  band energies     occupation 
      1     -16.0326      1.00000
      2     -15.9490      1.00000
      3      -3.9556      1.00000
      4      -2.9911      1.00000
      5      -1.3869      1.00000
      6      -1.3821      1.00000
      7      -0.7410      1.00000
      8      -0.7317      1.00000
      9       6.3592      0.00000
     10       9.9131      0.00000
     11      12.4263      0.00000
     12      12.6223      0.00000
     13      12.7700      0.00000
     14      13.0009      0.00000
     15      13.9710      0.00000
     16      14.3741      0.00000
     17      15.0008      0.00000
     18      16.3408      0.00000
     19      19.6525      0.00000
     20      23.7650      0.00000

 k-point    98 :       0.0686    0.0686    0.0000
  band No.  band energies     occupation 
      1     -16.1148      1.00000
      2     -16.0303      1.00000
      3      -4.0687      1.00000
      4      -3.0973      1.00000
      5      -1.1080      1.00000
      6      -1.1045      1.00000
      7      -0.5861      1.00000
      8      -0.5772      1.00000
      9       6.2208      0.00000
     10       9.8987      0.00000
     11      12.3734      0.00000
     12      12.6093      0.00000
     13      12.9318      0.00000
     14      13.0230      0.00000
     15      13.7341      0.00000
     16      14.0015      0.00000
     17      15.1852      0.00000
     18      16.0631      0.00000
     19      19.5013      0.00000
     20      23.9871      0.00000

 k-point    99 :       0.0588    0.0588    0.0000
  band No.  band energies     occupation 
      1     -16.1863      1.00000
      2     -16.1010      1.00000
      3      -4.1670      1.00000
      4      -3.1898      1.00000
      5      -0.8507      1.00000
      6      -0.8488      1.00000
      7      -0.4484      1.00000
      8      -0.4400      1.00000
      9       6.0984      0.00000
     10       9.8797      0.00000
     11      12.3295      0.00000
     12      12.6084      0.00000
     13      12.8724      0.00000
     14      13.2481      0.00000
     15      13.5025      0.00000
     16      13.6628      0.00000
     17      15.3588      0.00000
     18      15.8235      0.00000
     19      19.3621      0.00000
     20      24.1778      0.00000

 k-point   100 :       0.0490    0.0490    0.0000
  band No.  band energies     occupation 
      1     -16.2472      1.00000
      2     -16.1612      1.00000
      3      -4.2505      1.00000
      4      -3.2685      1.00000
      5      -0.6202      1.00000
      6      -0.6202      1.00000
      7      -0.3294      1.00000
      8      -0.3213      1.00000
      9       5.9927      0.00000
     10       9.8590      0.00000
     11      12.2921      0.00000
     12      12.6168      0.00000
     13      12.8224      0.00000
     14      13.2855      0.00000
     15      13.3652      0.00000
     16      13.4421      0.00000
     17      15.5157      0.00000
     18      15.6205      0.00000
     19      19.2376      0.00000
     20      24.3373      0.00000

 k-point   101 :       0.0392    0.0392    0.0000
  band No.  band energies     occupation 
      1     -16.2971      1.00000
      2     -16.2106      1.00000
      3      -4.3190      1.00000
      4      -3.3330      1.00000
      5      -0.4236      1.00000
      6      -0.4216      1.00000
      7      -0.2302      1.00000
      8      -0.2224      1.00000
      9       5.9042      0.00000
     10       9.8391      0.00000
     11      12.2589      0.00000
     12      12.6316      0.00000
     13      12.7822      0.00000
     14      13.0926      0.00000
     15      13.1159      0.00000
     16      13.6036      0.00000
     17      15.4530      0.00000
     18      15.6510      0.00000
     19      19.1306      0.00000
     20      24.4661      0.00000

 k-point   102 :       0.0294    0.0294    0.0000
  band No.  band energies     occupation 
      1     -16.3361      1.00000
      2     -16.2491      1.00000
      3      -4.3723      1.00000
      4      -3.3833      1.00000
      5      -0.2643      1.00000
      6      -0.2602      1.00000
      7      -0.1520      1.00000
      8      -0.1444      1.00000
      9       5.8340      0.00000
     10       9.8220      0.00000
     11      12.2279      0.00000
     12      12.6489      0.00000
     13      12.7516      0.00000
     14      12.9211      0.00000
     15      12.9327      0.00000
     16      13.7308      0.00000
     17      15.3209      0.00000
     18      15.7607      0.00000
     19      19.0439      0.00000
     20      24.5648      0.00000

 k-point   103 :       0.0196    0.0196    0.0000
  band No.  band energies     occupation 
      1     -16.3640      1.00000
      2     -16.2767      1.00000
      3      -4.4105      1.00000
      4      -3.4193      1.00000
      5      -0.1466      1.00000
      6      -0.1408      1.00000
      7      -0.0955      1.00000
      8      -0.0880      1.00000
      9       5.7829      0.00000
     10       9.8088      0.00000
     11      12.1995      0.00000
     12      12.6648      0.00000
     13      12.7303      0.00000
     14      12.7847      0.00000
     15      12.8130      0.00000
     16      13.8225      0.00000
     17      15.2249      0.00000
     18      15.8412      0.00000
     19      18.9800      0.00000
     20      24.6343      0.00000

 k-point   104 :       0.0098    0.0098    0.0000
  band No.  band energies     occupation 
      1     -16.3808      1.00000
      2     -16.2933      1.00000
      3      -4.4334      1.00000
      4      -3.4410      1.00000
      5      -0.0744      1.00000
      6      -0.0674      1.00000
      7      -0.0614      1.00000
      8      -0.0540      1.00000
      9       5.7518      0.00000
     10       9.8005      0.00000
     11      12.1781      0.00000
     12      12.6761      0.00000
     13      12.7056      0.00000
     14      12.7179      0.00000
     15      12.7388      0.00000
     16      13.8778      0.00000
     17      15.1666      0.00000
     18      15.8905      0.00000
     19      18.9409      0.00000
     20      24.6755      0.00000

 k-point   105 :       0.0000    0.0000    0.0000
  band No.  band energies     occupation 
      1     -16.3864      1.00000
      2     -16.2988      1.00000
      3      -4.4411      1.00000
      4      -3.4482      1.00000
      5      -0.0500      1.00000
      6      -0.0500      1.00000
      7      -0.0426      1.00000
      8      -0.0426      1.00000
      9       5.7414      0.00000
     10       9.7977      0.00000
     11      12.1699      0.00000
     12      12.6802      0.00000
     13      12.6802      0.00000
     14      12.7137      0.00000
     15      12.7137      0.00000
     16      13.8963      0.00000
     17      15.1469      0.00000
     18      15.9071      0.00000
     19      18.9276      0.00000
     20      24.6891      0.00000


--------------------------------------------------------------------------------------------------------


 soft charge-density along one line, spin component           1
         0         1         2         3         4         5         6         7         8         9
 total charge-density along one line
 
 soft charge-density along one line, spin component           2
         0         1         2         3         4         5         6         7         8         9
 total charge-density along one line
 
 pseudopotential strength for first ion, spin component:           1
  6.459   9.836   0.000   0.000   0.000   0.000   0.000   0.000
  9.836  14.973   0.000   0.000   0.000   0.000   0.000   0.000
  0.000   0.000  -2.189   0.000  -0.000  -3.726   0.000  -0.000
  0.000   0.000   0.000  -2.176  -0.000   0.000  -3.700  -0.000
  0.000   0.000  -0.000  -0.000  -2.189  -0.000  -0.000  -3.726
  0.000   0.000  -3.726   0.000  -0.000  -6.142   0.000  -0.000
  0.000   0.000   0.000  -3.700  -0.000   0.000  -6.092  -0.000
  0.000   0.000  -0.000  -0.000  -3.726  -0.000  -0.000  -6.142
 pseudopotential strength for first ion, spin component:           2
  6.460   9.837  -0.000   0.000   0.000  -0.000   0.000   0.000
  9.837  14.974  -0.000   0.000   0.000  -0.000   0.000   0.000
 -0.000  -0.000  -2.189   0.000  -0.000  -3.726   0.000  -0.000
  0.000   0.000   0.000  -2.176  -0.000   0.000  -3.700  -0.000
  0.000   0.000  -0.000  -0.000  -2.189  -0.000  -0.000  -3.726
 -0.000  -0.000  -3.726   0.000  -0.000  -6.142   0.000  -0.000
  0.000   0.000   0.000  -3.700  -0.000   0.000  -6.092  -0.000
  0.000   0.000  -0.000  -0.000  -3.726  -0.000  -0.000  -6.142
 total augmentation occupancy for first ion, spin component:           1
  4.205  -1.231   0.000   0.000   0.000   0.000  -0.000  -0.000
 -1.231   0.389   0.000   0.000   0.000   0.000   0.000   0.000
  0.000  -0.000   4.757   0.000  -0.000  -1.408  -0.000   0.000
 -0.000  -0.000  -0.000   1.511  -0.000   0.000  -0.378   0.000
 -0.000  -0.000   0.000   0.000   4.757   0.000  -0.000  -1.408
  0.000  -0.000  -1.408   0.000  -0.000   0.434   0.000   0.000
  0.000   0.000  -0.000  -0.378  -0.000  -0.000   0.096   0.000
  0.000  -0.000   0.000  -0.000  -1.408   0.000   0.000   0.434
 total augmentation occupancy for first ion, spin component:           2
 -0.001   0.000  -0.000  -0.000   0.000   0.000  -0.000   0.000
  0.000  -0.000  -0.000   0.000  -0.000  -0.000   0.000   0.000
  0.000  -0.000  -0.000   0.000  -0.000   0.000  -0.000  -0.000
 -0.000   0.000  -0.000   0.000  -0.000  -0.000   0.000   0.000
 -0.000   0.000  -0.000   0.000  -0.000   0.000   0.000   0.000
  0.000   0.000   0.000   0.000   0.000  -0.000  -0.000   0.000
 -0.000   0.000   0.000   0.000   0.000  -0.000  -0.000  -0.000
  0.000  -0.000   0.000   0.000   0.000   0.000   0.000  -0.000


------------------------ aborting loop because EDIFF is reached ----------------------------------------


 


 total charge     
 
# of ion       s       p       d       tot
------------------------------------------
    1        0.737   1.396   0.000   2.133
    2        0.737   1.396   0.000   2.133
    3        1.206   2.830   0.000   4.036
    4        1.206   2.830   0.000   4.036
--------------------------------------------------
tot          3.885   8.452   0.000  12.338
 


 magnetization (x)
 
# of ion       s       p       d       tot
------------------------------------------
    1        0.000   0.000   0.000   0.000
    2        0.000   0.000   0.000   0.000
    3       -0.000  -0.000   0.000  -0.000
    4       -0.000  -0.000   0.000  -0.000
--------------------------------------------------
tot          0.000  -0.000   0.000  -0.000
 
    CHARGE:  cpu time    0.1069: real time    0.1069
    FORLOC:  cpu time    0.0004: real time    0.0004
    FORNL :  cpu time    0.5511: real time    0.5517
    STRESS:  cpu time    1.6607: real time    1.6610
    FORCOR:  cpu time    0.0893: real time    0.0893
    FORHAR:  cpu time    0.0129: real time    0.0129
    MIXING:  cpu time    0.0023: real time    0.0023
    OFIELD:  cpu time    0.0000: real time    0.0000

  FORCE on cell =-STRESS in cart. coord.  units (eV):
  Direction    XX          YY          ZZ          XY          YZ          ZX
  --------------------------------------------------------------------------------------
  Alpha Z    33.78355    33.78355    33.78355
  Ewald     137.14113   137.14113  -680.17966    -0.00000    -0.00000    -0.00000
  Hartree   237.35847   237.35847  -178.24354     0.00000     0.00000    -0.00000
  E(xc)     -63.31143   -63.31143   -65.10595    -0.00000     0.00000    -0.00000
  Local    -572.85865  -572.85862   629.38044     0.00000    -0.00000     0.00000
  n-local   -31.61171   -30.76375   -31.00001     0.16445    -0.00351     0.00615
  augment     2.21465     2.21462     2.63742    -0.00000     0.00000    -0.00000
  Kinetic   259.80571   257.48689   288.89371     0.67023     0.03407    -0.05901
  Fock        0.00000     0.00000     0.00000     0.00000     0.00000     0.00000
  -------------------------------------------------------------------------------------
  Total       1.78629     1.78629     0.16596    -0.00000    -0.00000     0.00000
  in kB      67.92732    67.92732     6.31079    -0.00000    -0.00000     0.00000
  external pressure =       47.39 kB  Pullay stress =        0.00 kB


 VOLUME and BASIS-vectors are now :
 -----------------------------------------------------------------------------
  energy-cutoff  :      520.00
  volume of cell :       42.13
      direct lattice vectors                 reciprocal lattice vectors
     1.256214114 -2.175826671  0.000000000     0.398021320 -0.229797716  0.000000000
     1.256214114  2.175826671  0.000000000     0.398021320  0.229797716  0.000000000
     0.000000000  0.000000000  7.707265000     0.000000000  0.000000000  0.129747712

  length of vectors
     2.512428228  2.512428228  7.707265000     0.459595433  0.459595433  0.129747712


 FORCES acting on ions
    electron-ion (+dipol)            ewald-force                    non-local-force                 convergence-correction
 -----------------------------------------------------------------------------------------------
   -.546E-12 0.470E-06 0.126E-12   -.108E-13 0.130E-10 -.141E-13   -.369E-16 -.554E-16 -.441E-19   -.470E-16 0.121E-06 0.142E-12
   0.157E-12 -.470E-06 -.168E-11   0.128E-13 -.130E-10 0.140E-13   0.573E-16 0.104E-16 0.332E-19   0.249E-15 -.121E-06 -.136E-12
   0.581E-11 -.165E-07 -.931E-12   -.121E-13 0.130E-10 0.234E-13   -.105E-17 -.105E-16 0.132E-18   0.105E-14 0.673E-07 -.258E-12
   0.508E-11 0.165E-07 -.285E-11   0.116E-13 -.130E-10 -.233E-13   0.145E-17 0.207E-16 0.132E-18   -.742E-14 -.673E-07 0.270E-12
 -----------------------------------------------------------------------------------------------
   0.105E-10 -.417E-11 -.533E-11   0.151E-14 0.163E-14 -.134E-18   0.208E-16 -.348E-16 0.253E-18   -.617E-14 0.425E-14 0.188E-13
 
 
 POSITION                                       TOTAL-FORCE (eV/Angst)
 -----------------------------------------------------------------------------------
      1.25621      0.72528      1.92682         0.000000     -0.000000      0.000000
      1.25621     -0.72528      5.78045        -0.000000      0.000000     -0.000000
      1.25621      0.72528      5.78045        -0.000000      0.000000     -0.000000
      1.25621     -0.72528      1.92682        -0.000000     -0.000000      0.000000
 -----------------------------------------------------------------------------------
    total drift:                                0.000000     -0.000000     -0.000000


--------------------------------------------------------------------------------------------------------



  FREE ENERGIE OF THE ION-ELECTRON SYSTEM (eV)
  ---------------------------------------------------
  free  energy   TOTEN  =       -33.82061618 eV

  energy  without entropy=      -33.82061618  energy(sigma->0) =      -33.82061618
 


--------------------------------------------------------------------------------------------------------


    POTLOK:  cpu time    0.2803: real time    0.2804


--------------------------------------------------------------------------------------------------------


     LOOP+:  cpu time   96.6174: real time   97.8981
    4ORBIT:  cpu time    0.0000: real time    0.0000
 


 total charge     
 
# of ion       s       p       d       tot
------------------------------------------
    1        0.737   1.396   0.000   2.133
    2        0.737   1.396   0.000   2.133
    3        1.206   2.830   0.000   4.036
    4        1.206   2.830   0.000   4.036
--------------------------------------------------
tot          3.885   8.452   0.000  12.338
 


 magnetization (x)
 
# of ion       s       p       d       tot
------------------------------------------
    1        0.000   0.000   0.000   0.000
    2        0.000   0.000   0.000   0.000
    3       -0.000  -0.000   0.000  -0.000
    4       -0.000  -0.000   0.000  -0.000
--------------------------------------------------
tot          0.000  -0.000   0.000  -0.000
 

 total amount of memory used by VASP MPI-rank0    39123. kBytes
=======================================================================

   base      :      30000. kBytes
   nonlr-proj:       1930. kBytes
   fftplans  :        426. kBytes
   grid      :       2711. kBytes
   one-center:         24. kBytes
   wavefun   :       4032. kBytes
 
  
  
 General timing and accounting informations for this job:
 ========================================================
  
                  Total CPU time used (sec):      101.268
                            User time (sec):       55.814
                          System time (sec):       45.454
                         Elapsed time (sec):      104.921
  
                   Maximum memory used (kb):      158584.
                   Average memory used (kb):           0.
  
                          Minor page faults:        15609
                          Major page faults:            0
                 Voluntary context switches:         1717
