PROCAR lm decomposed
# of k-points:  105         # of bands:   20         # of ions:    4

 k-point     1 :    0.00000000 0.00000000 0.00000000     weight = 0.00952381

band     1 # energy  -16.38784699 # occ.  1.00000000
 
ion      s     py     pz     px    dxy    dyz    dz2    dxz  x2-y2    tot
    1  0.134  0.000  0.000  0.000  0.000  0.000  0.000  0.000  0.000  0.134
    2  0.134  0.000  0.000  0.000  0.000  0.000  0.000  0.000  0.000  0.134
    3  0.250  0.000  0.000  0.000  0.000  0.000  0.000  0.000  0.000  0.250
    4  0.250  0.000  0.000  0.000  0.000  0.000  0.000  0.000  0.000  0.250
tot    0.768  0.000  0.000  0.000  0.000  0.000  0.000  0.000  0.000  0.768
 
band     2 # energy  -16.30027950 # occ.  1.00000000
 
ion      s     py     pz     px    dxy    dyz    dz2    dxz  x2-y2    tot
    1  0.135  0.000  0.000  0.000  0.000  0.000  0.000  0.000  0.000  0.135
    2  0.135  0.000  0.000  0.000  0.000  0.000  0.000  0.000  0.000  0.135
    3  0.254  0.000  0.000  0.000  0.000  0.000  0.000  0.000  0.000  0.254
    4  0.254  0.000  0.000  0.000  0.000  0.000  0.000  0.000  0.000  0.254
tot    0.778  0.000  0.000  0.000  0.000  0.000  0.000  0.000  0.000  0.778
 
band     3 # energy   -4.44331478 # occ.  1.00000000
 
ion      s     py     pz     px    dxy    dyz    dz2    dxz  x2-y2    tot
    1  0.000  0.000  0.092  0.000  0.000  0.000  0.000  0.000  0.000  0.092
    2  0.000  0.000  0.092  0.000  0.000  0.000  0.000  0.000  0.000  0.092
    3  0.000  0.000  0.143  0.000  0.000  0.000  0.000  0.000  0.000  0.143
    4  0.000  0.000  0.143  0.000  0.000  0.000  0.000  0.000  0.000  0.143
tot    0.000  0.000  0.470  0.000  0.000  0.000  0.000  0.000  0.000  0.470
 
band     4 # energy   -3.45051605 # occ.  1.00000000
 
ion      s     py     pz     px    dxy    dyz    dz2    dxz  x2-y2    tot
    1  0.000  0.000  0.105  0.000  0.000  0.000  0.000  0.000  0.000  0.105
    2  0.000  0.000  0.105  0.000  0.000  0.000  0.000  0.000  0.000  0.105
    3  0.000  0.000  0.175  0.000  0.000  0.000  0.000  0.000  0.000  0.175
    4  0.000  0.000  0.175  0.000  0.000  0.000  0.000  0.000  0.000  0.175
tot    0.000  0.000  0.560  0.000  0.000  0.000  0.000  0.000  0.000  0.560
 
band     5 # energy   -0.05018755 # occ.  1.00000000
 
ion      s     py     pz     px    dxy    dyz    dz2    dxz  x2-y2    tot
    1  0.000  0.000  0.000  0.139  0.000  0.000  0.000  0.000  0.000  0.139
    2  0.000  0.000  0.000  0.139  0.000  0.000  0.000  0.000  0.000  0.139
    3  0.000  0.000  0.000  0.312  0.000  0.000  0.000  0.000  0.000  0.312
    4  0.000  0.000  0.000  0.312  0.000  0.000  0.000  0.000  0.000  0.312
tot    0.000  0.000  0.000  0.901  0.000  0.000  0.000  0.000  0.000  0.901
 
band     6 # energy   -0.05018604 # occ.  1.00000000
 
ion      s     py     pz     px    dxy    dyz    dz2    dxz  x2-y2    tot
    1  0.000  0.139  0.000  0.000  0.000  0.000  0.000  0.000  0.000  0.139
    2  0.000  0.139  0.000  0.000  0.000  0.000  0.000  0.000  0.000  0.139
    3  0.000  0.312  0.000  0.000  0.000  0.000  0.000  0.000  0.000  0.312
    4  0.000  0.312  0.000  0.000  0.000  0.000  0.000  0.000  0.000  0.312
tot    0.000  0.901  0.000  0.000  0.000  0.000  0.000  0.000  0.000  0.901
 
band     7 # energy   -0.04272622 # occ.  1.00000000
 
ion      s     py     pz     px    dxy    dyz    dz2    dxz  x2-y2    tot
    1  0.000  0.000  0.000  0.139  0.000  0.000  0.000  0.000  0.000  0.139
    2  0.000  0.000  0.000  0.139  0.000  0.000  0.000  0.000  0.000  0.139
    3  0.000  0.000  0.000  0.312  0.000  0.000  0.000  0.000  0.000  0.312
    4  0.000  0.000  0.000  0.312  0.000  0.000  0.000  0.000  0.000  0.312
tot    0.000  0.000  0.000  0.902  0.000  0.000  0.000  0.000  0.000  0.902
 
band     8 # energy   -0.04272469 # occ.  1.00000000
 
ion      s     py     pz     px    dxy    dyz    dz2    dxz  x2-y2    tot
    1  0.000  0.139  0.000  0.000  0.000  0.000  0.000  0.000  0.000  0.139
    2  0.000  0.139  0.000  0.000  0.000  0.000  0.000  0.000  0.000  0.139
    3  0.000  0.312  0.000  0.000  0.000  0.000  0.000  0.000  0.000  0.312
    4  0.000  0.312  0.000  0.000  0.000  0.000  0.000  0.000  0.000  0.312
tot    0.000  0.902  0.000  0.000  0.000  0.000  0.000  0.000  0.000  0.902
 
band     9 # energy    5.74116827 # occ.  0.00000000
 
ion      s     py     pz     px    dxy    dyz    dz2    dxz  x2-y2    tot
    1  0.000  0.000  0.000  0.000  0.000  0.000  0.000  0.000  0.000  0.000
    2  0.000  0.000  0.000  0.000  0.000  0.000  0.000  0.000  0.000  0.000
    3  0.052  0.000  0.000  0.000  0.000  0.000  0.000  0.000  0.000  0.052
    4  0.052  0.000  0.000  0.000  0.000  0.000  0.000  0.000  0.000  0.052
tot    0.105  0.000  0.000  0.000  0.000  0.000  0.000  0.000  0.000  0.105
 
band    10 # energy    9.80017357 # occ.  0.00000000
 
ion      s     py     pz     px    dxy    dyz    dz2    dxz  x2-y2    tot
    1  0.000  0.000  0.000  0.000  0.000  0.000  0.000  0.000  0.000  0.000
    2  0.000  0.000  0.000  0.000  0.000  0.000  0.000  0.000  0.000  0.000
    3  0.000  0.000  0.170  0.000  0.000  0.000  0.000  0.000  0.000  0.170
    4  0.000  0.000  0.170  0.000  0.000  0.000  0.000  0.000  0.000  0.170
tot    0.000  0.000  0.340  0.000  0.000  0.000  0.000  0.000  0.000  0.340
 
band    11 # energy   12.16601159 # occ.  0.00000000
 
ion      s     py     pz     px    dxy    dyz    dz2    dxz  x2-y2    tot
    1  0.066  0.000  0.000  0.000  0.000  0.000  0.000  0.000  0.000  0.066
    2  0.066  0.000  0.000  0.000  0.000  0.000  0.000  0.000  0.000  0.066
    3  0.165  0.000  0.000  0.000  0.000  0.000  0.000  0.000  0.000  0.165
    4  0.165  0.000  0.000  0.000  0.000  0.000  0.000  0.000  0.000  0.165
tot    0.462  0.000  0.000  0.000  0.000  0.000  0.000  0.000  0.000  0.462
 
band    12 # energy   12.67723143 # occ.  0.00000000
 
ion      s     py     pz     px    dxy    dyz    dz2    dxz  x2-y2    tot
    1  0.000  0.238  0.000  0.000  0.000  0.000  0.000  0.000  0.000  0.238
    2  0.000  0.238  0.000  0.000  0.000  0.000  0.000  0.000  0.000  0.238
    3  0.000  0.055  0.000  0.000  0.000  0.000  0.000  0.000  0.000  0.055
    4  0.000  0.055  0.000  0.000  0.000  0.000  0.000  0.000  0.000  0.055
tot    0.000  0.586  0.000  0.000  0.000  0.000  0.000  0.000  0.000  0.586
 
band    13 # energy   12.67724059 # occ.  0.00000000
 
ion      s     py     pz     px    dxy    dyz    dz2    dxz  x2-y2    tot
    1  0.000  0.000  0.000  0.238  0.000  0.000  0.000  0.000  0.000  0.238
    2  0.000  0.000  0.000  0.238  0.000  0.000  0.000  0.000  0.000  0.238
    3  0.000  0.000  0.000  0.055  0.000  0.000  0.000  0.000  0.000  0.055
    4  0.000  0.000  0.000  0.055  0.000  0.000  0.000  0.000  0.000  0.055
tot    0.000  0.000  0.000  0.586  0.000  0.000  0.000  0.000  0.000  0.586
 
band    14 # energy   12.71073884 # occ.  0.00000000
 
ion      s     py     pz     px    dxy    dyz    dz2    dxz  x2-y2    tot
    1  0.000  0.239  0.000  0.000  0.000  0.000  0.000  0.000  0.000  0.239
    2  0.000  0.239  0.000  0.000  0.000  0.000  0.000  0.000  0.000  0.239
    3  0.000  0.056  0.000  0.000  0.000  0.000  0.000  0.000  0.000  0.056
    4  0.000  0.056  0.000  0.000  0.000  0.000  0.000  0.000  0.000  0.056
tot    0.000  0.589  0.000  0.000  0.000  0.000  0.000  0.000  0.000  0.589
 
band    15 # energy   12.71074799 # occ.  0.00000000
 
ion      s     py     pz     px    dxy    dyz    dz2    dxz  x2-y2    tot
    1  0.000  0.000  0.000  0.239  0.000  0.000  0.000  0.000  0.000  0.239
    2  0.000  0.000  0.000  0.239  0.000  0.000  0.000  0.000  0.000  0.239
    3  0.000  0.000  0.000  0.056  0.000  0.000  0.000  0.000  0.000  0.056
    4  0.000  0.000  0.000  0.056  0.000  0.000  0.000  0.000  0.000  0.056
tot    0.000  0.000  0.000  0.589  0.000  0.000  0.000  0.000  0.000  0.589
 
band    16 # energy   13.89520025 # occ.  0.00000000
 
ion      s     py     pz     px    dxy    dyz    dz2    dxz  x2-y2    tot
    1  0.000  0.000  0.151  0.000  0.000  0.000  0.000  0.000  0.000  0.151
    2  0.000  0.000  0.151  0.000  0.000  0.000  0.000  0.000  0.000  0.151
    3  0.000  0.000  0.220  0.000  0.000  0.000  0.000  0.000  0.000  0.220
    4  0.000  0.000  0.220  0.000  0.000  0.000  0.000  0.000  0.000  0.220
tot    0.000  0.000  0.742  0.000  0.000  0.000  0.000  0.000  0.000  0.742
 
band    17 # energy   15.14475858 # occ.  0.00000000
 
ion      s     py     pz     px    dxy    dyz    dz2    dxz  x2-y2    tot
    1  0.164  0.000  0.000  0.000  0.000  0.000  0.000  0.000  0.000  0.164
    2  0.164  0.000  0.000  0.000  0.000  0.000  0.000  0.000  0.000  0.164
    3  0.135  0.000  0.000  0.000  0.000  0.000  0.000  0.000  0.000  0.135
    4  0.135  0.000  0.000  0.000  0.000  0.000  0.000  0.000  0.000  0.135
tot    0.598  0.000  0.000  0.000  0.000  0.000  0.000  0.000  0.000  0.598
 
band    18 # energy   15.90614462 # occ.  0.00000000
 
ion      s     py     pz     px    dxy    dyz    dz2    dxz  x2-y2    tot
    1  0.000  0.000  0.272  0.000  0.000  0.000  0.000  0.000  0.000  0.272
    2  0.000  0.000  0.272  0.000  0.000  0.000  0.000  0.000  0.000  0.272
    3  0.000  0.000  0.082  0.000  0.000  0.000  0.000  0.000  0.000  0.082
    4  0.000  0.000  0.082  0.000  0.000  0.000  0.000  0.000  0.000  0.082
tot    0.000  0.000  0.708  0.000  0.000  0.000  0.000  0.000  0.000  0.708
 
band    19 # energy   18.92273006 # occ.  0.00000000
 
ion      s     py     pz     px    dxy    dyz    dz2    dxz  x2-y2    tot
    1  0.102  0.000  0.000  0.000  0.000  0.000  0.000  0.000  0.000  0.102
    2  0.102  0.000  0.000  0.000  0.000  0.000  0.000  0.000  0.000  0.102
    3  0.017  0.000  0.000  0.000  0.000  0.000  0.000  0.000  0.000  0.017
    4  0.017  0.000  0.000  0.000  0.000  0.000  0.000  0.000  0.000  0.017
tot    0.238  0.000  0.000  0.000  0.000  0.000  0.000  0.000  0.000  0.238
 
band    20 # energy   24.68443666 # occ.  0.00000000
 
ion      s     py     pz     px    dxy    dyz    dz2    dxz  x2-y2    tot
    1  0.000  0.000  0.158  0.000  0.000  0.000  0.000  0.000  0.000  0.158
    2  0.000  0.000  0.158  0.000  0.000  0.000  0.000  0.000  0.000  0.158
    3  0.000  0.000  0.024  0.000  0.000  0.000  0.000  0.000  0.000  0.024
    4  0.000  0.000  0.024  0.000  0.000  0.000  0.000  0.000  0.000  0.024
tot    0.000  0.000  0.363  0.000  0.000  0.000  0.000  0.000  0.000  0.363
 

 k-point     2 :    0.01470588 0.00000000 0.01470588     weight = 0.00952381

band     1 # energy  -16.38358566 # occ.  1.00000000
 
ion      s     py     pz     px    dxy    dyz    dz2    dxz  x2-y2    tot
    1  0.134  0.000  0.000  0.000  0.000  0.000  0.000  0.000  0.000  0.134
    2  0.134  0.000  0.000  0.000  0.000  0.000  0.000  0.000  0.000  0.134
    3  0.250  0.000  0.000  0.000  0.000  0.000  0.000  0.000  0.000  0.250
    4  0.250  0.000  0.000  0.000  0.000  0.000  0.000  0.000  0.000  0.250
tot    0.768  0.000  0.000  0.000  0.000  0.000  0.000  0.000  0.000  0.769
 
band     2 # energy  -16.29616299 # occ.  1.00000000
 
ion      s     py     pz     px    dxy    dyz    dz2    dxz  x2-y2    tot
    1  0.135  0.000  0.000  0.000  0.000  0.000  0.000  0.000  0.000  0.135
    2  0.135  0.000  0.000  0.000  0.000  0.000  0.000  0.000  0.000  0.135
    3  0.254  0.000  0.000  0.000  0.000  0.000  0.000  0.000  0.000  0.254
    4  0.254  0.000  0.000  0.000  0.000  0.000  0.000  0.000  0.000  0.254
tot    0.778  0.000  0.000  0.000  0.000  0.000  0.000  0.000  0.000  0.778
 
band     3 # energy   -4.43712066 # occ.  1.00000000
 
ion      s     py     pz     px    dxy    dyz    dz2    dxz  x2-y2    tot
    1  0.000  0.000  0.092  0.000  0.000  0.000  0.000  0.000  0.000  0.092
    2  0.000  0.000  0.092  0.000  0.000  0.000  0.000  0.000  0.000  0.092
    3  0.000  0.000  0.143  0.000  0.000  0.000  0.000  0.000  0.000  0.143
    4  0.000  0.000  0.143  0.000  0.000  0.000  0.000  0.000  0.000  0.143
tot    0.000  0.000  0.470  0.000  0.000  0.000  0.000  0.000  0.000  0.470
 
band     4 # energy   -3.44572626 # occ.  1.00000000
 
ion      s     py     pz     px    dxy    dyz    dz2    dxz  x2-y2    tot
    1  0.000  0.000  0.105  0.000  0.000  0.000  0.000  0.000  0.000  0.105
    2  0.000  0.000  0.105  0.000  0.000  0.000  0.000  0.000  0.000  0.105
    3  0.000  0.000  0.175  0.000  0.000  0.000  0.000  0.000  0.000  0.175
    4  0.000  0.000  0.175  0.000  0.000  0.000  0.000  0.000  0.000  0.175
tot    0.000  0.000  0.560  0.000  0.000  0.000  0.000  0.000  0.000  0.560
 
band     5 # energy   -0.06848859 # occ.  1.00000000
 
ion      s     py     pz     px    dxy    dyz    dz2    dxz  x2-y2    tot
    1  0.000  0.035  0.000  0.104  0.000  0.000  0.000  0.000  0.000  0.139
    2  0.000  0.035  0.000  0.104  0.000  0.000  0.000  0.000  0.000  0.139
    3  0.000  0.078  0.000  0.234  0.000  0.000  0.000  0.000  0.000  0.312
    4  0.000  0.078  0.000  0.234  0.000  0.000  0.000  0.000  0.000  0.312
tot    0.001  0.225  0.000  0.675  0.000  0.000  0.000  0.000  0.000  0.901
 
band     6 # energy   -0.06133348 # occ.  1.00000000
 
ion      s     py     pz     px    dxy    dyz    dz2    dxz  x2-y2    tot
    1  0.000  0.035  0.000  0.104  0.000  0.000  0.000  0.000  0.000  0.139
    2  0.000  0.035  0.000  0.104  0.000  0.000  0.000  0.000  0.000  0.139
    3  0.000  0.078  0.000  0.234  0.000  0.000  0.000  0.000  0.000  0.312
    4  0.000  0.078  0.000  0.234  0.000  0.000  0.000  0.000  0.000  0.312
tot    0.001  0.225  0.000  0.675  0.000  0.000  0.000  0.000  0.000  0.901
 
band     7 # energy   -0.05874843 # occ.  1.00000000
 
ion      s     py     pz     px    dxy    dyz    dz2    dxz  x2-y2    tot
    1  0.000  0.104  0.000  0.035  0.000  0.000  0.000  0.000  0.000  0.139
    2  0.000  0.104  0.000  0.035  0.000  0.000  0.000  0.000  0.000  0.139
    3  0.000  0.234  0.000  0.078  0.000  0.000  0.000  0.000  0.000  0.312
    4  0.000  0.234  0.000  0.078  0.000  0.000  0.000  0.000  0.000  0.312
tot    0.000  0.676  0.000  0.225  0.000  0.000  0.000  0.000  0.000  0.901
 
band     8 # energy   -0.05125873 # occ.  1.00000000
 
ion      s     py     pz     px    dxy    dyz    dz2    dxz  x2-y2    tot
    1  0.000  0.104  0.000  0.035  0.000  0.000  0.000  0.000  0.000  0.139
    2  0.000  0.104  0.000  0.035  0.000  0.000  0.000  0.000  0.000  0.139
    3  0.000  0.234  0.000  0.078  0.000  0.000  0.000  0.000  0.000  0.312
    4  0.000  0.234  0.000  0.078  0.000  0.000  0.000  0.000  0.000  0.312
tot    0.000  0.676  0.000  0.225  0.000  0.000  0.000  0.000  0.000  0.902
 
band     9 # energy    5.75062618 # occ.  0.00000000
 
ion      s     py     pz     px    dxy    dyz    dz2    dxz  x2-y2    tot
    1  0.000  0.000  0.000  0.000  0.000  0.000  0.000  0.000  0.000  0.000
    2  0.000  0.000  0.000  0.000  0.000  0.000  0.000  0.000  0.000  0.000
    3  0.052  0.000  0.000  0.000  0.000  0.000  0.000  0.000  0.000  0.052
    4  0.052  0.000  0.000  0.000  0.000  0.000  0.000  0.000  0.000  0.052
tot    0.104  0.000  0.000  0.000  0.000  0.000  0.000  0.000  0.000  0.105
 
band    10 # energy    9.79803570 # occ.  0.00000000
 
ion      s     py     pz     px    dxy    dyz    dz2    dxz  x2-y2    tot
    1  0.000  0.000  0.000  0.000  0.000  0.000  0.000  0.000  0.000  0.000
    2  0.000  0.000  0.000  0.000  0.000  0.000  0.000  0.000  0.000  0.000
    3  0.000  0.000  0.169  0.000  0.000  0.000  0.000  0.000  0.000  0.170
    4  0.000  0.000  0.169  0.000  0.000  0.000  0.000  0.000  0.000  0.170
tot    0.001  0.000  0.339  0.000  0.000  0.000  0.000  0.000  0.000  0.340
 
band    11 # energy   12.17512172 # occ.  0.00000000
 
ion      s     py     pz     px    dxy    dyz    dz2    dxz  x2-y2    tot
    1  0.065  0.001  0.000  0.002  0.000  0.000  0.000  0.000  0.000  0.068
    2  0.065  0.001  0.000  0.002  0.000  0.000  0.000  0.000  0.000  0.068
    3  0.164  0.000  0.001  0.000  0.000  0.000  0.000  0.000  0.000  0.164
    4  0.164  0.000  0.001  0.000  0.000  0.000  0.000  0.000  0.000  0.164
tot    0.458  0.001  0.001  0.004  0.000  0.000  0.000  0.000  0.000  0.464
 
band    12 # energy   12.67430819 # occ.  0.00000000
 
ion      s     py     pz     px    dxy    dyz    dz2    dxz  x2-y2    tot
    1  0.000  0.059  0.000  0.178  0.000  0.000  0.000  0.000  0.000  0.238
    2  0.000  0.059  0.000  0.178  0.000  0.000  0.000  0.000  0.000  0.238
    3  0.001  0.014  0.000  0.041  0.000  0.000  0.000  0.000  0.000  0.055
    4  0.001  0.014  0.000  0.041  0.000  0.000  0.000  0.000  0.000  0.055
tot    0.001  0.146  0.000  0.438  0.000  0.000  0.000  0.000  0.000  0.585
 
band    13 # energy   12.69618252 # occ.  0.00000000
 
ion      s     py     pz     px    dxy    dyz    dz2    dxz  x2-y2    tot
    1  0.000  0.178  0.000  0.060  0.000  0.000  0.000  0.000  0.000  0.238
    2  0.000  0.178  0.000  0.060  0.000  0.000  0.000  0.000  0.000  0.238
    3  0.000  0.041  0.000  0.014  0.000  0.000  0.000  0.000  0.000  0.055
    4  0.000  0.041  0.000  0.014  0.000  0.000  0.000  0.000  0.000  0.055
tot    0.000  0.439  0.000  0.147  0.000  0.000  0.000  0.000  0.000  0.586
 
band    14 # energy   12.71389001 # occ.  0.00000000
 
ion      s     py     pz     px    dxy    dyz    dz2    dxz  x2-y2    tot
    1  0.001  0.059  0.000  0.177  0.000  0.000  0.000  0.000  0.000  0.237
    2  0.001  0.059  0.000  0.177  0.000  0.000  0.000  0.000  0.000  0.237
    3  0.001  0.014  0.000  0.042  0.000  0.000  0.000  0.000  0.000  0.057
    4  0.001  0.014  0.000  0.042  0.000  0.000  0.000  0.000  0.000  0.057
tot    0.003  0.146  0.000  0.438  0.000  0.000  0.000  0.000  0.000  0.587
 
band    15 # energy   12.72969755 # occ.  0.00000000
 
ion      s     py     pz     px    dxy    dyz    dz2    dxz  x2-y2    tot
    1  0.000  0.179  0.000  0.060  0.000  0.000  0.000  0.000  0.000  0.239
    2  0.000  0.179  0.000  0.060  0.000  0.000  0.000  0.000  0.000  0.239
    3  0.000  0.042  0.000  0.014  0.000  0.000  0.000  0.000  0.000  0.056
    4  0.000  0.042  0.000  0.014  0.000  0.000  0.000  0.000  0.000  0.056
tot    0.000  0.442  0.000  0.147  0.000  0.000  0.000  0.000  0.000  0.589
 
band    16 # energy   13.88089080 # occ.  0.00000000
 
ion      s     py     pz     px    dxy    dyz    dz2    dxz  x2-y2    tot
    1  0.000  0.000  0.151  0.000  0.000  0.000  0.000  0.000  0.000  0.151
    2  0.000  0.000  0.151  0.000  0.000  0.000  0.000  0.000  0.000  0.151
    3  0.000  0.000  0.219  0.000  0.000  0.000  0.000  0.000  0.000  0.219
    4  0.000  0.000  0.219  0.000  0.000  0.000  0.000  0.000  0.000  0.219
tot    0.000  0.000  0.741  0.000  0.000  0.000  0.000  0.000  0.000  0.741
 
band    17 # energy   15.15978733 # occ.  0.00000000
 
ion      s     py     pz     px    dxy    dyz    dz2    dxz  x2-y2    tot
    1  0.164  0.000  0.000  0.000  0.000  0.000  0.000  0.000  0.000  0.164
    2  0.164  0.000  0.000  0.000  0.000  0.000  0.000  0.000  0.000  0.164
    3  0.134  0.000  0.000  0.001  0.000  0.000  0.000  0.000  0.000  0.135
    4  0.134  0.000  0.000  0.001  0.000  0.000  0.000  0.000  0.000  0.135
tot    0.597  0.001  0.000  0.002  0.000  0.000  0.000  0.000  0.000  0.599
 
band    18 # energy   15.89298704 # occ.  0.00000000
 
ion      s     py     pz     px    dxy    dyz    dz2    dxz  x2-y2    tot
    1  0.000  0.000  0.271  0.000  0.000  0.000  0.000  0.000  0.000  0.272
    2  0.000  0.000  0.271  0.000  0.000  0.000  0.000  0.000  0.000  0.272
    3  0.000  0.000  0.082  0.000  0.000  0.000  0.000  0.000  0.000  0.082
    4  0.000  0.000  0.082  0.000  0.000  0.000  0.000  0.000  0.000  0.082
tot    0.001  0.000  0.706  0.000  0.000  0.000  0.000  0.000  0.000  0.707
 
band    19 # energy   18.93566662 # occ.  0.00000000
 
ion      s     py     pz     px    dxy    dyz    dz2    dxz  x2-y2    tot
    1  0.102  0.000  0.000  0.000  0.000  0.000  0.000  0.000  0.000  0.102
    2  0.102  0.000  0.000  0.000  0.000  0.000  0.000  0.000  0.000  0.102
    3  0.017  0.000  0.000  0.000  0.000  0.000  0.000  0.000  0.000  0.017
    4  0.017  0.000  0.000  0.000  0.000  0.000  0.000  0.000  0.000  0.017
tot    0.238  0.000  0.000  0.000  0.000  0.000  0.000  0.000  0.000  0.239
 
band    20 # energy   24.66976542 # occ.  0.00000000
 
ion      s     py     pz     px    dxy    dyz    dz2    dxz  x2-y2    tot
    1  0.000  0.000  0.157  0.000  0.000  0.000  0.000  0.000  0.000  0.157
    2  0.000  0.000  0.157  0.000  0.000  0.000  0.000  0.000  0.000  0.157
    3  0.000  0.000  0.024  0.000  0.000  0.000  0.000  0.000  0.000  0.024
    4  0.000  0.000  0.024  0.000  0.000  0.000  0.000  0.000  0.000  0.024
tot    0.000  0.000  0.361  0.000  0.000  0.000  0.000  0.000  0.000  0.361
 

 k-point     3 :    0.02941176 0.00000000 0.02941176     weight = 0.00952381

band     1 # energy  -16.37086500 # occ.  1.00000000
 
ion      s     py     pz     px    dxy    dyz    dz2    dxz  x2-y2    tot
    1  0.134  0.000  0.000  0.000  0.000  0.000  0.000  0.000  0.000  0.134
    2  0.134  0.000  0.000  0.000  0.000  0.000  0.000  0.000  0.000  0.134
    3  0.250  0.000  0.000  0.000  0.000  0.000  0.000  0.000  0.000  0.250
    4  0.250  0.000  0.000  0.000  0.000  0.000  0.000  0.000  0.000  0.250
tot    0.768  0.000  0.000  0.001  0.000  0.000  0.000  0.000  0.000  0.769
 
band     2 # energy  -16.28387657 # occ.  1.00000000
 
ion      s     py     pz     px    dxy    dyz    dz2    dxz  x2-y2    tot
    1  0.135  0.000  0.000  0.000  0.000  0.000  0.000  0.000  0.000  0.135
    2  0.135  0.000  0.000  0.000  0.000  0.000  0.000  0.000  0.000  0.135
    3  0.254  0.000  0.000  0.000  0.000  0.000  0.000  0.000  0.000  0.254
    4  0.254  0.000  0.000  0.000  0.000  0.000  0.000  0.000  0.000  0.254
tot    0.777  0.000  0.000  0.001  0.000  0.000  0.000  0.000  0.000  0.778
 
band     3 # energy   -4.41855563 # occ.  1.00000000
 
ion      s     py     pz     px    dxy    dyz    dz2    dxz  x2-y2    tot
    1  0.000  0.000  0.092  0.000  0.000  0.000  0.000  0.000  0.000  0.092
    2  0.000  0.000  0.092  0.000  0.000  0.000  0.000  0.000  0.000  0.092
    3  0.000  0.000  0.143  0.000  0.000  0.000  0.000  0.000  0.000  0.143
    4  0.000  0.000  0.143  0.000  0.000  0.000  0.000  0.000  0.000  0.143
tot    0.000  0.000  0.470  0.000  0.000  0.000  0.000  0.000  0.000  0.470
 
band     4 # energy   -3.43136021 # occ.  1.00000000
 
ion      s     py     pz     px    dxy    dyz    dz2    dxz  x2-y2    tot
    1  0.000  0.000  0.105  0.000  0.000  0.000  0.000  0.000  0.000  0.105
    2  0.000  0.000  0.105  0.000  0.000  0.000  0.000  0.000  0.000  0.105
    3  0.000  0.000  0.175  0.000  0.000  0.000  0.000  0.000  0.000  0.175
    4  0.000  0.000  0.175  0.000  0.000  0.000  0.000  0.000  0.000  0.175
tot    0.000  0.000  0.560  0.000  0.000  0.000  0.000  0.000  0.000  0.560
 
band     5 # energy   -0.12306017 # occ.  1.00000000
 
ion      s     py     pz     px    dxy    dyz    dz2    dxz  x2-y2    tot
    1  0.001  0.034  0.000  0.103  0.000  0.000  0.000  0.000  0.000  0.139
    2  0.001  0.034  0.000  0.103  0.000  0.000  0.000  0.000  0.000  0.139
    3  0.001  0.077  0.000  0.232  0.000  0.000  0.000  0.000  0.000  0.311
    4  0.001  0.077  0.000  0.232  0.000  0.000  0.000  0.000  0.000  0.311
tot    0.005  0.224  0.000  0.671  0.000  0.000  0.000  0.000  0.000  0.900
 
band     6 # energy   -0.11674897 # occ.  1.00000000
 
ion      s     py     pz     px    dxy    dyz    dz2    dxz  x2-y2    tot
    1  0.001  0.034  0.000  0.103  0.000  0.000  0.000  0.000  0.000  0.139
    2  0.001  0.034  0.000  0.103  0.000  0.000  0.000  0.000  0.000  0.139
    3  0.001  0.077  0.000  0.232  0.000  0.000  0.000  0.000  0.000  0.311
    4  0.001  0.077  0.000  0.232  0.000  0.000  0.000  0.000  0.000  0.311
tot    0.005  0.224  0.000  0.671  0.000  0.000  0.000  0.000  0.000  0.900
 
band     7 # energy   -0.08425127 # occ.  1.00000000
 
ion      s     py     pz     px    dxy    dyz    dz2    dxz  x2-y2    tot
    1  0.000  0.105  0.000  0.035  0.000  0.000  0.000  0.000  0.000  0.139
    2  0.000  0.105  0.000  0.035  0.000  0.000  0.000  0.000  0.000  0.139
    3  0.000  0.233  0.000  0.078  0.000  0.000  0.000  0.000  0.000  0.311
    4  0.000  0.233  0.000  0.078  0.000  0.000  0.000  0.000  0.000  0.311
tot    0.000  0.676  0.000  0.225  0.000  0.000  0.000  0.000  0.000  0.901
 
band     8 # energy   -0.07666964 # occ.  1.00000000
 
ion      s     py     pz     px    dxy    dyz    dz2    dxz  x2-y2    tot
    1  0.000  0.105  0.000  0.035  0.000  0.000  0.000  0.000  0.000  0.139
    2  0.000  0.105  0.000  0.035  0.000  0.000  0.000  0.000  0.000  0.139
    3  0.000  0.234  0.000  0.078  0.000  0.000  0.000  0.000  0.000  0.311
    4  0.000  0.234  0.000  0.078  0.000  0.000  0.000  0.000  0.000  0.311
tot    0.000  0.676  0.000  0.225  0.000  0.000  0.000  0.000  0.000  0.901
 
band     9 # energy    5.77883910 # occ.  0.00000000
 
ion      s     py     pz     px    dxy    dyz    dz2    dxz  x2-y2    tot
    1  0.000  0.000  0.000  0.000  0.000  0.000  0.000  0.000  0.000  0.000
    2  0.000  0.000  0.000  0.000  0.000  0.000  0.000  0.000  0.000  0.000
    3  0.051  0.000  0.000  0.001  0.000  0.000  0.000  0.000  0.000  0.052
    4  0.051  0.000  0.000  0.001  0.000  0.000  0.000  0.000  0.000  0.052
tot    0.103  0.000  0.000  0.001  0.000  0.000  0.000  0.000  0.000  0.105
 
band    10 # energy    9.79178223 # occ.  0.00000000
 
ion      s     py     pz     px    dxy    dyz    dz2    dxz  x2-y2    tot
    1  0.000  0.000  0.000  0.000  0.000  0.000  0.000  0.000  0.000  0.000
    2  0.000  0.000  0.000  0.000  0.000  0.000  0.000  0.000  0.000  0.000
    3  0.001  0.000  0.169  0.000  0.000  0.000  0.000  0.000  0.000  0.170
    4  0.001  0.000  0.169  0.000  0.000  0.000  0.000  0.000  0.000  0.170
tot    0.002  0.000  0.338  0.000  0.000  0.000  0.000  0.000  0.000  0.340
 
band    11 # energy   12.19957160 # occ.  0.00000000
 
ion      s     py     pz     px    dxy    dyz    dz2    dxz  x2-y2    tot
    1  0.061  0.003  0.000  0.008  0.000  0.000  0.000  0.000  0.000  0.073
    2  0.061  0.003  0.000  0.008  0.000  0.000  0.000  0.000  0.000  0.073
    3  0.160  0.000  0.002  0.000  0.000  0.000  0.000  0.000  0.000  0.162
    4  0.160  0.000  0.002  0.000  0.000  0.000  0.000  0.000  0.000  0.162
tot    0.443  0.006  0.004  0.017  0.000  0.000  0.000  0.000  0.000  0.469
 
band    12 # energy   12.66695043 # occ.  0.00000000
 
ion      s     py     pz     px    dxy    dyz    dz2    dxz  x2-y2    tot
    1  0.000  0.059  0.000  0.177  0.000  0.000  0.000  0.000  0.000  0.236
    2  0.000  0.059  0.000  0.177  0.000  0.000  0.000  0.000  0.000  0.236
    3  0.002  0.013  0.000  0.040  0.000  0.000  0.000  0.000  0.000  0.055
    4  0.002  0.013  0.000  0.040  0.000  0.000  0.000  0.000  0.000  0.055
tot    0.005  0.144  0.000  0.433  0.000  0.000  0.000  0.000  0.000  0.582
 
band    13 # energy   12.72407053 # occ.  0.00000000
 
ion      s     py     pz     px    dxy    dyz    dz2    dxz  x2-y2    tot
    1  0.004  0.057  0.000  0.170  0.000  0.000  0.000  0.000  0.000  0.231
    2  0.004  0.057  0.000  0.170  0.000  0.000  0.000  0.000  0.000  0.231
    3  0.002  0.014  0.000  0.043  0.000  0.000  0.000  0.000  0.000  0.060
    4  0.002  0.014  0.000  0.043  0.000  0.000  0.000  0.000  0.000  0.060
tot    0.013  0.142  0.000  0.426  0.000  0.000  0.000  0.000  0.000  0.581
 
band    14 # energy   12.75281544 # occ.  0.00000000
 
ion      s     py     pz     px    dxy    dyz    dz2    dxz  x2-y2    tot
    1  0.000  0.178  0.000  0.059  0.000  0.000  0.000  0.000  0.000  0.237
    2  0.000  0.178  0.000  0.059  0.000  0.000  0.000  0.000  0.000  0.237
    3  0.000  0.042  0.000  0.014  0.000  0.000  0.000  0.000  0.000  0.056
    4  0.000  0.042  0.000  0.014  0.000  0.000  0.000  0.000  0.000  0.056
tot    0.000  0.440  0.000  0.147  0.000  0.000  0.000  0.000  0.000  0.587
 
band    15 # energy   12.78618462 # occ.  0.00000000
 
ion      s     py     pz     px    dxy    dyz    dz2    dxz  x2-y2    tot
    1  0.000  0.179  0.000  0.060  0.000  0.000  0.000  0.000  0.000  0.238
    2  0.000  0.179  0.000  0.060  0.000  0.000  0.000  0.000  0.000  0.238
    3  0.000  0.043  0.000  0.014  0.000  0.000  0.000  0.000  0.000  0.057
    4  0.000  0.043  0.000  0.014  0.000  0.000  0.000  0.000  0.000  0.057
tot    0.000  0.442  0.000  0.147  0.000  0.000  0.000  0.000  0.000  0.590
 
band    16 # energy   13.83823492 # occ.  0.00000000
 
ion      s     py     pz     px    dxy    dyz    dz2    dxz  x2-y2    tot
    1  0.000  0.000  0.151  0.000  0.000  0.000  0.000  0.000  0.000  0.152
    2  0.000  0.000  0.151  0.000  0.000  0.000  0.000  0.000  0.000  0.152
    3  0.000  0.000  0.218  0.000  0.000  0.000  0.000  0.000  0.000  0.218
    4  0.000  0.000  0.218  0.000  0.000  0.000  0.000  0.000  0.000  0.218
tot    0.001  0.000  0.738  0.000  0.000  0.000  0.000  0.000  0.000  0.739
 
band    17 # energy   15.20438109 # occ.  0.00000000
 
ion      s     py     pz     px    dxy    dyz    dz2    dxz  x2-y2    tot
    1  0.164  0.000  0.000  0.000  0.000  0.000  0.000  0.000  0.000  0.165
    2  0.164  0.000  0.000  0.000  0.000  0.000  0.000  0.000  0.000  0.165
    3  0.132  0.001  0.000  0.003  0.000  0.000  0.000  0.000  0.000  0.136
    4  0.132  0.001  0.000  0.003  0.000  0.000  0.000  0.000  0.000  0.136
tot    0.593  0.002  0.001  0.006  0.000  0.000  0.000  0.000  0.000  0.602
 
band    18 # energy   15.85398107 # occ.  0.00000000
 
ion      s     py     pz     px    dxy    dyz    dz2    dxz  x2-y2    tot
    1  0.001  0.000  0.270  0.000  0.000  0.000  0.000  0.000  0.000  0.271
    2  0.001  0.000  0.270  0.000  0.000  0.000  0.000  0.000  0.000  0.271
    3  0.000  0.000  0.080  0.000  0.000  0.000  0.000  0.000  0.000  0.081
    4  0.000  0.000  0.080  0.000  0.000  0.000  0.000  0.000  0.000  0.081
tot    0.002  0.000  0.701  0.000  0.000  0.000  0.000  0.000  0.000  0.704
 