<?xml version="1.0" encoding="ISO-8859-1"?>
<modeling>
 <generator>
  <i name="program" type="string">vasp </i>
  <i name="version" type="string">5.4.4.18Apr17-6-g9f103f2a35  </i>
  <i name="subversion" type="string">(build Mar 17 2022 15:46:19) complex            parallel </i>
  <i name="platform" type="string">LinuxIFC </i>
  <i name="date" type="string">2023 01 20 </i>
  <i name="time" type="string">14:31:02 </i>
 </generator>
 <incar>
  <i type="string" name="PREC">accurate</i>
  <i type="string" name="ALGO"> Fast</i>
  <i type="int" name="ISPIN">     2</i>
  <i type="int" name="NELM">   100</i>
  <i type="int" name="IBRION">     2</i>
  <i name="EDIFF">      0.00020000</i>
  <i type="int" name="NSW">     0</i>
  <i type="int" name="ISIF">     3</i>
  <i name="ENCUT">    520.00000000</i>
  <v name="MAGMOM">      0.60000000      0.60000000      0.60000000      0.60000000</v>
  <i type="string" name="LREAL"> Auto</i>
  <i type="int" name="ISMEAR">     0</i>
  <i name="SIGMA">      0.05000000</i>
  <i type="logical" name="LWAVE"> F  </i>
  <i type="int" name="LORBIT">    11</i>
  <i type="logical" name="LASPH"> T  </i>
  <v type="int" name="KPOINT_BSE">    -1     0     0     0</v>
  <i type="int" name="NELM">   100</i>
  <i type="logical" name="LASPH"> T  </i>
 </incar>
 <structure name="primitive_cell" >
  <crystal>
   <varray name="basis" >
    <v>       1.25621411      -2.17582667       0.00000000 </v>
    <v>       1.25621411       2.17582667       0.00000000 </v>
    <v>       0.00000000       0.00000000       7.70726500 </v>
   </varray>
   <i name="volume">     42.13259918 </i>
   <varray name="rec_basis" >
    <v>       0.39802132      -0.22979772       0.00000000 </v>
    <v>       0.39802132       0.22979772       0.00000000 </v>
    <v>       0.00000000       0.00000000       0.12974771 </v>
   </varray>
  </crystal>
  <varray name="positions" >
   <v>       0.33333333      -0.33333333       0.25000000 </v>
   <v>      -0.33333333       0.33333333       0.25000000 </v>
   <v>       0.33333333      -0.33333333      -0.25000000 </v>
   <v>      -0.33333333       0.33333333      -0.25000000 </v>
  </varray>
 </structure>
 <varray name="primitive_index" >
  <v type="int" >        1 </v>
  <v type="int" >        4 </v>
  <v type="int" >        3 </v>
  <v type="int" >        2 </v>
 </varray>
 <kpoints>
  <generation param="listgenerated">
   <i name="divisions" type="int">      35 </i>
   <v>       0.00000000       0.00000000       0.00000000 </v>
   <v>       0.50000000       0.00000000       0.00000000 </v>
   <v>       0.33330000       0.33330000       0.00000000 </v>
   <v>       0.00000000       0.00000000       0.00000000 </v>
  </generation>
  <varray name="kpointlist" >
   <v>       0.00000000       0.00000000       0.00000000 </v>
   <v>       0.01470588       0.00000000       0.01470588 </v>
   <v>       0.02941176       0.00000000       0.02941176 </v>
   <v>       0.04411765       0.00000000       0.04411765 </v>
   <v>       0.05882353       0.00000000       0.05882353 </v>
   <v>       0.07352941       0.00000000       0.07352941 </v>
   <v>       0.08823529       0.00000000       0.08823529 </v>
   <v>       0.10294118       0.00000000       0.10294118 </v>
   <v>       0.11764706       0.00000000       0.11764706 </v>
   <v>       0.13235294       0.00000000       0.13235294 </v>
   <v>       0.14705882       0.00000000       0.14705882 </v>
   <v>       0.16176471       0.00000000       0.16176471 </v>
   <v>       0.17647059       0.00000000       0.17647059 </v>
   <v>       0.19117647       0.00000000       0.19117647 </v>
   <v>       0.20588235       0.00000000       0.20588235 </v>
   <v>       0.22058824       0.00000000       0.22058824 </v>
   <v>       0.23529412       0.00000000       0.23529412 </v>
   <v>       0.25000000       0.00000000       0.25000000 </v>
   <v>       0.26470588       0.00000000       0.26470588 </v>
   <v>       0.27941176       0.00000000       0.27941176 </v>
   <v>       0.29411765       0.00000000       0.29411765 </v>
   <v>       0.30882353       0.00000000       0.30882353 </v>
   <v>       0.32352941       0.00000000       0.32352941 </v>
   <v>       0.33823529       0.00000000       0.33823529 </v>
   <v>       0.35294118       0.00000000       0.35294118 </v>
   <v>       0.36764706       0.00000000       0.36764706 </v>
   <v>       0.38235294       0.00000000       0.38235294 </v>
   <v>       0.39705882       0.00000000       0.39705882 </v>
   <v>       0.41176471       0.00000000       0.41176471 </v>
   <v>       0.42647059       0.00000000       0.42647059 </v>
   <v>       0.44117647       0.00000000       0.44117647 </v>
   <v>       0.45588235       0.00000000       0.45588235 </v>
   <v>       0.47058824       0.00000000       0.47058824 </v>
   <v>       0.48529412       0.00000000       0.48529412 </v>
   <v>       0.50000000       0.00000000       0.50000000 </v>
   <v>       0.50000000       0.00000000       0.00000000 </v>
   <v>       0.49509706       0.00980294       0.00000000 </v>
   <v>       0.49019412       0.01960588       0.00000000 </v>
   <v>       0.48529118       0.02940882       0.00000000 </v>
   <v>       0.48038824       0.03921176       0.00000000 </v>
   <v>       0.47548529       0.04901471       0.00000000 </v>
   <v>       0.47058235       0.05881765       0.00000000 </v>
   <v>       0.46567941       0.06862059       0.00000000 </v>
   <v>       0.46077647       0.07842353       0.00000000 </v>
   <v>       0.45587353       0.08822647       0.00000000 </v>
   <v>       0.45097059       0.09802941       0.00000000 </v>
   <v>       0.44606765       0.10783235       0.00000000 </v>
   <v>       0.44116471       0.11763529       0.00000000 </v>
   <v>       0.43626176       0.12743824       0.00000000 </v>
   <v>       0.43135882       0.13724118       0.00000000 </v>
   <v>       0.42645588       0.14704412       0.00000000 </v>
   <v>       0.42155294       0.15684706       0.00000000 </v>
   <v>       0.41665000       0.16665000       0.00000000 </v>
   <v>       0.41174706       0.17645294       0.00000000 </v>
   <v>       0.40684412       0.18625588       0.00000000 </v>
   <v>       0.40194118       0.19605882       0.00000000 </v>
   <v>       0.39703824       0.20586176       0.00000000 </v>
   <v>       0.39213529       0.21566471       0.00000000 </v>
   <v>       0.38723235       0.22546765       0.00000000 </v>
   <v>       0.38232941       0.23527059       0.00000000 </v>
   <v>       0.37742647       0.24507353       0.00000000 </v>
   <v>       0.37252353       0.25487647       0.00000000 </v>
   <v>       0.36762059       0.26467941       0.00000000 </v>
   <v>       0.36271765       0.27448235       0.00000000 </v>
   <v>       0.35781471       0.28428529       0.00000000 </v>
   <v>       0.35291176       0.29408824       0.00000000 </v>
   <v>       0.34800882       0.30389118       0.00000000 </v>
   <v>       0.34310588       0.31369412       0.00000000 </v>
   <v>       0.33820294       0.32349706       0.00000000 </v>
   <v>       0.33330000       0.33330000       0.00000000 </v>
   <v>       0.33330000       0.33330000       0.00000000 </v>
   <v>       0.32349706       0.32349706       0.00000000 </v>
   <v>       0.31369412       0.31369412       0.00000000 </v>
   <v>       0.30389118       0.30389118       0.00000000 </v>
   <v>       0.29408824       0.29408824       0.00000000 </v>
   <v>       0.28428529       0.28428529       0.00000000 </v>
   <v>       0.27448235       0.27448235       0.00000000 </v>
   <v>       0.26467941       0.26467941       0.00000000 </v>
   <v>       0.25487647       0.25487647       0.00000000 </v>
   <v>       0.24507353       0.24507353       0.00000000 </v>
   <v>       0.23527059       0.23527059       0.00000000 </v>
   <v>       0.22546765       0.22546765       0.00000000 </v>
   <v>       0.21566471       0.21566471       0.00000000 </v>
   <v>       0.20586176       0.20586176       0.00000000 </v>
   <v>       0.19605882       0.19605882       0.00000000 </v>
   <v>       0.18625588       0.18625588       0.00000000 </v>
   <v>       0.17645294       0.17645294       0.00000000 </v>
   <v>       0.16665000       0.16665000       0.00000000 </v>
   <v>       0.15684706       0.15684706       0.00000000 </v>
   <v>       0.14704412       0.14704412       0.00000000 </v>
   <v>       0.13724118       0.13724118       0.00000000 </v>
   <v>       0.12743824       0.12743824       0.00000000 </v>
   <v>       0.11763529       0.11763529       0.00000000 </v>
   <v>       0.10783235       0.10783235       0.00000000 </v>
   <v>       0.09802941       0.09802941       0.00000000 </v>
   <v>       0.08822647       0.08822647       0.00000000 </v>
   <v>       0.07842353       0.07842353       0.00000000 </v>
   <v>       0.06862059       0.06862059       0.00000000 </v>
   <v>       0.05881765       0.05881765       0.00000000 </v>
   <v>       0.04901471       0.04901471       0.00000000 </v>
   <v>       0.03921176       0.03921176       0.00000000 </v>
   <v>       0.02940882       0.02940882       0.00000000 </v>
   <v>       0.01960588       0.01960588       0.00000000 </v>
   <v>       0.00980294       0.00980294       0.00000000 </v>
   <v>       0.00000000       0.00000000       0.00000000 </v>
  </varray>
  <varray name="weights" >
   <v>       0.00952381 </v>
   <v>       0.00952381 </v>
   <v>       0.00952381 </v>
   <v>       0.00952381 </v>
   <v>       0.00952381 </v>
   <v>       0.00952381 </v>
   <v>       0.00952381 </v>
   <v>       0.00952381 </v>
   <v>       0.00952381 </v>
   <v>       0.00952381 </v>
   <v>       0.00952381 </v>
   <v>       0.00952381 </v>
   <v>       0.00952381 </v>
   <v>       0.00952381 </v>
   <v>       0.00952381 </v>
   <v>       0.00952381 </v>
   <v>       0.00952381 </v>
   <v>       0.00952381 </v>
   <v>       0.00952381 </v>
   <v>       0.00952381 </v>
   <v>       0.00952381 </v>
   <v>       0.00952381 </v>
   <v>       0.00952381 </v>
   <v>       0.00952381 </v>
   <v>       0.00952381 </v>
   <v>       0.00952381 </v>
   <v>       0.00952381 </v>
   <v>       0.00952381 </v>
   <v>       0.00952381 </v>
   <v>       0.00952381 </v>
   <v>       0.00952381 </v>
   <v>       0.00952381 </v>
   <v>       0.00952381 </v>
   <v>       0.00952381 </v>
   <v>       0.00952381 </v>
   <v>       0.00952381 </v>
   <v>       0.00952381 </v>
   <v>       0.00952381 </v>
   <v>       0.00952381 </v>
   <v>       0.00952381 </v>
   <v>       0.00952381 </v>
   <v>       0.00952381 </v>
   <v>       0.00952381 </v>
   <v>       0.00952381 </v>
   <v>       0.00952381 </v>
   <v>       0.00952381 </v>
   <v>       0.00952381 </v>
   <v>       0.00952381 </v>
   <v>       0.00952381 </v>
   <v>       0.00952381 </v>
   <v>       0.00952381 </v>
   <v>       0.00952381 </v>
   <v>       0.00952381 </v>
   <v>       0.00952381 </v>
   <v>       0.00952381 </v>
   <v>       0.00952381 </v>
   <v>       0.00952381 </v>
   <v>       0.00952381 </v>
   <v>       0.00952381 </v>
   <v>       0.00952381 </v>
   <v>       0.00952381 </v>
   <v>       0.00952381 </v>
   <v>       0.00952381 </v>
   <v>       0.00952381 </v>
   <v>       0.00952381 </v>
   <v>       0.00952381 </v>
   <v>       0.00952381 </v>
   <v>       0.00952381 </v>
   <v>       0.00952381 </v>
   <v>       0.00952381 </v>
   <v>       0.00952381 </v>
   <v>       0.00952381 </v>
   <v>       0.00952381 </v>
   <v>       0.00952381 </v>
   <v>       0.00952381 </v>
   <v>       0.00952381 </v>
   <v>       0.00952381 </v>
   <v>       0.00952381 </v>
   <v>       0.00952381 </v>
   <v>       0.00952381 </v>
   <v>       0.00952381 </v>
   <v>       0.00952381 </v>
   <v>       0.00952381 </v>
   <v>       0.00952381 </v>
   <v>       0.00952381 </v>
   <v>       0.00952381 </v>
   <v>       0.00952381 </v>
   <v>       0.00952381 </v>
   <v>       0.00952381 </v>
   <v>       0.00952381 </v>
   <v>       0.00952381 </v>
   <v>       0.00952381 </v>
   <v>       0.00952381 </v>
   <v>       0.00952381 </v>
   <v>       0.00952381 </v>
   <v>       0.00952381 </v>
   <v>       0.00952381 </v>
   <v>       0.00952381 </v>
   <v>       0.00952381 </v>
   <v>       0.00952381 </v>
   <v>       0.00952381 </v>
   <v>       0.00952381 </v>
   <v>       0.00952381 </v>
   <v>       0.00952381 </v>
   <v>       0.00952381 </v>
  </varray>
 </kpoints>
 <parameters>
  <separator name="general" >
   <i type="string" name="SYSTEM">unknown system</i>
   <i type="logical" name="LCOMPAT"> F  </i>
  </separator>
  <separator name="electronic" >
   <i type="string" name="PREC">accura</i>
   <i name="ENMAX">    520.00000000</i>
   <i name="ENAUG">    627.11200000</i>
   <i name="EDIFF">      0.00020000</i>
   <i type="int" name="IALGO">    68</i>
   <i type="int" name="IWAVPR">    10</i>
   <i type="int" name="NBANDS">    20</i>
   <i name="NELECT">     16.00000000</i>
   <i type="int" name="TURBO">     0</i>
   <i type="int" name="IRESTART">     0</i>
   <i type="int" name="NREBOOT">     0</i>
   <i type="int" name="NMIN">     0</i>
   <i name="EREF">      0.00000000</i>
   <separator name="electronic smearing" >
    <i type="int" name="ISMEAR">     0</i>
    <i name="SIGMA">      0.05000000</i>
    <i name="KSPACING">      0.50000000</i>
    <i type="logical" name="KGAMMA"> T  </i>
   </separator>
   <separator name="electronic projectors" >
    <i type="logical" name="LREAL"> T  </i>
    <v name="ROPT">     -0.00025000     -0.00025000</v>
    <i type="int" name="LMAXPAW">  -100</i>
    <i type="int" name="LMAXMIX">     2</i>
    <i type="logical" name="NLSPLINE"> F  </i>
   </separator>
   <separator name="electronic startup" >
    <i type="int" name="ISTART">     0</i>
    <i type="int" name="ICHARG">     2</i>
    <i type="int" name="INIWAV">     1</i>
   </separator>
   <separator name="electronic spin" >
    <i type="int" name="ISPIN">     2</i>
    <i type="logical" name="LNONCOLLINEAR"> F  </i>
    <v name="MAGMOM">      0.60000000      0.60000000      0.60000000      0.60000000</v>
    <i name="NUPDOWN">     -1.00000000</i>
    <i type="logical" name="LSORBIT"> F  </i>
    <v name="SAXIS">      0.00000000      0.00000000      1.00000000</v>
    <i type="logical" name="LSPIRAL"> F  </i>
    <v name="QSPIRAL">      0.00000000      0.00000000      0.00000000</v>
    <i type="logical" name="LZEROZ"> F  </i>
   </separator>
   <separator name="electronic exchange-correlation" >
    <i type="logical" name="LASPH"> T  </i>
    <i type="logical" name="LMETAGGA"> F  </i>
   </separator>
   <separator name="electronic convergence" >
    <i type="int" name="NELM">   100</i>
    <i type="int" name="NELMDL">     0</i>
    <i type="int" name="NELMIN">     2</i>
    <i name="ENINI">    520.00000000</i>
    <separator name="electronic convergence detail" >
     <i type="logical" name="LDIAG"> T  </i>
     <i type="logical" name="LSUBROT"> F  </i>
     <i name="WEIMIN">      0.00000000</i>
     <i name="EBREAK">      0.00000250</i>
     <i name="DEPER">      0.30000000</i>
     <i type="int" name="NRMM">     4</i>
     <i name="TIME">      0.40000000</i>
    </separator>
   </separator>
   <separator name="electronic mixer" >
    <i name="AMIX">      0.40000000</i>
    <i name="BMIX">      1.00000000</i>
    <i name="AMIN">      0.10000000</i>
    <i name="AMIX_MAG">      1.60000000</i>
    <i name="BMIX_MAG">      1.00000000</i>
    <separator name="electronic mixer details" >
     <i type="int" name="IMIX">     4</i>
     <i type="logical" name="MIXFIRST"> F  </i>
     <i type="int" name="MAXMIX">   -45</i>
     <i name="WC">    100.00000000</i>
     <i type="int" name="INIMIX">     1</i>
     <i type="int" name="MIXPRE">     1</i>
     <i type="int" name="MREMOVE">     5</i>
    </separator>
   </separator>
   <separator name="electronic dipolcorrection" >
    <i type="logical" name="LDIPOL"> F  </i>
    <i type="logical" name="LMONO"> F  </i>
    <i type="int" name="IDIPOL">     0</i>
    <i name="EPSILON">      1.00000000</i>
    <v name="DIPOL">   -100.00000000   -100.00000000   -100.00000000</v>
    <i name="EFIELD">      0.00000000</i>
   </separator>
  </separator>
  <separator name="grids" >
   <i type="int" name="NGX">    20</i>
   <i type="int" name="NGY">    20</i>
   <i type="int" name="NGZ">    60</i>
   <i type="int" name="NGXF">    40</i>
   <i type="int" name="NGYF">    40</i>
   <i type="int" name="NGZF">   120</i>
   <i type="logical" name="ADDGRID"> F  </i>
  </separator>
  <separator name="ionic" >
   <i type="int" name="NSW">     0</i>
   <i type="int" name="IBRION">    -1</i>
   <i type="int" name="MDALGO">     0</i>
   <i type="int" name="ISIF">     3</i>
   <i name="PSTRESS">      0.00000000</i>
   <i name="EDIFFG">      0.00200000</i>
   <i type="int" name="NFREE">     1</i>
   <i name="POTIM">      0.50000000</i>
   <i name="SMASS">     -3.00000000</i>
   <i name="SCALEE">      1.00000000</i>
  </separator>
  <separator name="ionic md" >
   <i name="TEBEG">      0.00010000</i>
   <i name="TEEND">      0.00010000</i>
   <i type="int" name="NBLOCK">     1</i>
   <i type="int" name="KBLOCK">     1</i>
   <i type="int" name="NPACO">   256</i>
   <i name="APACO">     16.00000000</i>
  </separator>
  <separator name="symmetry" >
   <i type="int" name="ISYM">     2</i>
   <i name="SYMPREC">      0.00001000</i>
  </separator>
  <separator name="dos" >
   <i type="int" name="LORBIT">    11</i>
   <v name="RWIGS">     -1.00000000     -1.00000000</v>
   <i type="int" name="NEDOS">   301</i>
   <i name="EMIN">     10.00000000</i>
   <i name="EMAX">    -10.00000000</i>
   <i name="EFERMI">      0.00000000</i>
  </separator>
  <separator name="writing" >
   <i type="int" name="NWRITE">     2</i>
   <i type="logical" name="LWAVE"> F  </i>
   <i type="logical" name="LDOWNSAMPLE"> F  </i>
   <i type="logical" name="LCHARG"> T  </i>
   <i type="logical" name="LPARD"> F  </i>
   <i type="logical" name="LVTOT"> F  </i>
   <i type="logical" name="LVHAR"> F  </i>
   <i type="logical" name="LELF"> F  </i>
   <i type="logical" name="LOPTICS"> F  </i>
   <v name="STM">      0.00000000      0.00000000      0.00000000      0.00000000      0.00000000      0.00000000      0.00000000</v>
  </separator>
  <separator name="performance" >
   <i type="int" name="NPAR">    20</i>
   <i type="int" name="NSIM">     4</i>
   <i type="int" name="NBLK">    -1</i>
   <i type="logical" name="LPLANE"> T  </i>
   <i type="logical" name="LSCALAPACK"> T  </i>
   <i type="logical" name="LSCAAWARE"> F  </i>
   <i type="logical" name="LSCALU"> F  </i>
   <i type="logical" name="LASYNC"> F  </i>
   <i type="logical" name="LORBITALREAL"> F  </i>
  </separator>
  <separator name="miscellaneous" >
   <i type="int" name="IDIOT">     3</i>
   <i type="int" name="ISPECIAL">     0</i>
   <i type="logical" name="LMUSIC"> F  </i>
   <v name="POMASS">     10.81100000     14.00100000</v>
   <v name="DARWINR">      0.00000000      0.00000000</v>
   <v name="DARWINV">      1.00000000      1.00000000</v>
   <i type="logical" name="LCORR"> T  </i>
  </separator>
  <i type="logical" name="GGA_COMPAT"> T  </i>
  <i type="logical" name="LBERRY"> F  </i>
  <i type="int" name="ICORELEVEL">     0</i>
  <i type="logical" name="LDAU"> F  </i>
  <i type="int" name="I_CONSTRAINED_M">     0</i>
  <separator name="electronic exchange-correlation" >
   <i type="string" name="GGA">--</i>
   <i type="int" name="VOSKOWN">     0</i>
   <i type="logical" name="LHFCALC"> F  </i>
   <i type="string" name="PRECFOCK"></i>
   <i type="logical" name="LSYMGRAD"> F  </i>
   <i type="logical" name="LHFONE"> F  </i>
   <i type="logical" name="LRHFCALC"> F  </i>
   <i type="logical" name="LTHOMAS"> F  </i>
   <i type="logical" name="LMODELHF"> F  </i>
   <i name="ENCUT4O">     -1.00000000</i>
   <i type="int" name="EXXOEP">     0</i>
   <i type="int" name="FOURORBIT">     0</i>
   <i name="AEXX">      0.00000000</i>
   <i name="HFALPHA">      0.00000000</i>
   <i name="MCALPHA">      0.00000000</i>
   <i name="ALDAX">      1.00000000</i>
   <i name="AGGAX">      1.00000000</i>
   <i name="ALDAC">      1.00000000</i>
   <i name="AGGAC">      1.00000000</i>
   <i type="int" name="NKREDX">     1</i>
   <i type="int" name="NKREDY">     1</i>
   <i type="int" name="NKREDZ">     1</i>
   <i type="logical" name="SHIFTRED"> F  </i>
   <i type="logical" name="ODDONLY"> F  </i>
   <i type="logical" name="EVENONLY"> F  </i>
   <i type="int" name="LMAXFOCK">     0</i>
   <i type="int" name="NMAXFOCKAE">     0</i>
   <i type="logical" name="LFOCKAEDFT"> F  </i>
   <i name="HFSCREEN">      0.00000000</i>
   <i name="HFSCREENC">      0.00000000</i>
   <i type="int" name="NBANDSGWLOW">     0</i>
  </separator>
  <separator name="vdW DFT" >
   <i type="logical" name="LUSE_VDW"> F  </i>
   <i name="Zab_VDW">     -0.84910000</i>
   <i name="PARAM1">      0.12340000</i>
   <i name="PARAM2">      1.00000000</i>
   <i name="PARAM3">      0.00000000</i>
  </separator>
  <separator name="model GW" >
   <i type="int" name="MODEL_GW">     0</i>
   <i name="MODEL_EPS0">      6.31988988</i>
   <i name="MODEL_ALPHA">      1.00000000</i>
  </separator>
  <separator name="linear response parameters" >
   <i type="logical" name="LEPSILON"> F  </i>
   <i type="logical" name="LRPA"> F  </i>
   <i type="logical" name="LNABLA"> F  </i>
   <i type="logical" name="LVEL"> F  </i>
   <i type="int" name="KINTER">     0</i>
   <i name="CSHIFT">      0.10000000</i>
   <i name="OMEGAMAX">     -1.00000000</i>
   <i name="DEG_THRESHOLD">      0.00200000</i>
   <i name="RTIME">     -0.10000000</i>
   <i name="WPLASMAI">      0.00000000</i>
   <v name="DFIELD">      0.00000000      0.00000000      0.00000000</v>
   <v name="WPLASMA">      0.00000000      0.00000000      0.00000000      0.00000000      0.00000000      0.00000000      0.00000000      0.00000000      0.00000000</v>
  </separator>
  <separator name="orbital magnetization" >
   <i type="logical" name="NUCIND"> F  </i>
   <v name="MAGPOS">      0.00000000      0.00000000      0.00000000</v>
   <i type="logical" name="LNICSALL"> T  </i>
   <i type="logical" name="ORBITALMAG"> F  </i>
   <i type="logical" name="LMAGBLOCH"> F  </i>
   <i type="logical" name="LCHIMAG"> F  </i>
   <i type="logical" name="LGAUGE"> T  </i>
   <i type="int" name="MAGATOM">     0</i>
   <v name="MAGDIPOL">      0.00000000      0.00000000      0.00000000</v>
   <v name="AVECCONST">      0.00000000      0.00000000      0.00000000</v>
  </separator>
  <separator name="response functions" >
   <i type="logical" name="LADDER"> F  </i>
   <i type="logical" name="LRPAFORCE"> F  </i>
   <i type="logical" name="LFXC"> F  </i>
   <i type="logical" name="LHARTREE"> T  </i>
   <i type="int" name="IBSE">     0</i>
   <v type="int" name="KPOINT">    -1     0     0     0</v>
   <i type="logical" name="LTCTE"> F  </i>
   <i type="logical" name="LTETE"> F  </i>
   <i type="logical" name="LTRIPLET"> F  </i>
   <i type="logical" name="LFXCEPS"> F  </i>
   <i type="logical" name="LFXHEG"> F  </i>
   <i type="int" name="NATURALO">     2</i>
   <i type="logical" name="L2ORDER"> F  </i>
   <i type="logical" name="LMP2LT"> F  </i>
   <i type="logical" name="LUSEW"> F  </i>
   <i name="ENCUTGW">     -2.00000000</i>
   <i name="ENCUTGWSOFT">     -2.00000000</i>
   <i name="ENCUTLF">     -1.00000000</i>
   <i type="int" name="LMAXMP2">    -1</i>
   <i name="SCISSOR">      0.00000000</i>
   <i type="int" name="NOMEGA">     0</i>
   <i type="int" name="NOMEGAR">     0</i>
   <i type="int" name="NBANDSGW">    -1</i>
   <i type="int" name="NBANDSO">    -1</i>
   <i type="int" name="NBANDSV">    -1</i>
   <i type="int" name="NELM">   100</i>
   <i type="int" name="NELMHF">     1</i>
   <i type="int" name="DIM">     3</i>
   <i type="int" name="ANTIRES">     0</i>
   <i name="OMEGAMAX">    -30.00000000</i>
   <i name="OMEGAMIN">    -30.00000000</i>
   <i name="OMEGATL">   -200.00000000</i>
   <i type="int" name="OMEGAGRID">   140</i>
   <i name="CSHIFT">     -0.10000000</i>
   <i type="logical" name="SELFENERGY"> F  </i>
   <i type="logical" name="LSPECTRAL"> F  </i>
   <i type="logical" name="LSPECTRALGW"> F  </i>
   <i type="logical" name="LSINGLES"> F  </i>
   <i type="logical" name="LFERMIGW"> F  </i>
   <i type="logical" name="ODDONLYGW"> F  </i>
   <i type="logical" name="EVENONLYGW"> F  </i>
   <i type="int" name="NKREDLFX">     1</i>
   <i type="int" name="NKREDLFY">     1</i>
   <i type="int" name="NKREDLFZ">     1</i>
   <i type="int" name="MAXMEM">  2800</i>
   <i type="int" name="TELESCOPE">     0</i>
   <i type="int" name="TAUPAR">     1</i>
   <i type="int" name="OMEGAPAR">    -1</i>
   <i name="LAMBDA">      1.00000000</i>
  </separator>
  <separator name="External order field" >
   <i name="OFIELD_KAPPA">      0.00000000</i>
   <v name="OFIELD_K">      0.00000000      0.00000000      0.00000000</v>
   <i name="OFIELD_Q6_NEAR">      0.00000000</i>
   <i name="OFIELD_Q6_FAR">      0.00000000</i>
   <i name="OFIELD_A">      0.00000000</i>
  </separator>
 </parameters>
 <atominfo>
  <atoms>       4 </atoms>
  <types>       2 </types>
  <array name="atoms" >
   <dimension dim="1">ion</dimension>
   <field type="string">element</field>
   <field type="int">atomtype</field>
   <set>
    <rc><c>B </c><c>   1</c></rc>
    <rc><c>B </c><c>   1</c></rc>
    <rc><c>N </c><c>   2</c></rc>
    <rc><c>N </c><c>   2</c></rc>
   </set>
  </array>
  <array name="atomtypes" >
   <dimension dim="1">type</dimension>
   <field type="int">atomspertype</field>
   <field type="string">element</field>
   <field>mass</field>
   <field>valence</field>
   <field type="string">pseudopotential</field>
   <set>
    <rc><c>   2</c><c>B </c><c>     10.81100000</c><c>      3.00000000</c><c>  PAW_PBE B 06Sep2000                   </c></rc>
    <rc><c>   2</c><c>N </c><c>     14.00100000</c><c>      5.00000000</c><c>  PAW_PBE N 08Apr2002                   </c></rc>
   </set>
  </array>
 </atominfo>
 <structure name="initialpos" >
  <crystal>
   <varray name="basis" >
    <v>       1.25621411      -2.17582667       0.00000000 </v>
    <v>       1.25621411       2.17582667       0.00000000 </v>
    <v>       0.00000000       0.00000000       7.70726500 </v>
   </varray>
   <i name="volume">     42.13259918 </i>
   <varray name="rec_basis" >
    <v>       0.39802132      -0.22979772       0.00000000 </v>
    <v>       0.39802132       0.22979772       0.00000000 </v>
    <v>       0.00000000       0.00000000       0.12974771 </v>
   </varray>
  </crystal>
  <varray name="positions" >
   <v>       0.33333333       0.66666667       0.25000000 </v>
   <v>       0.66666667       0.33333333       0.75000000 </v>
   <v>       0.33333333       0.66666667       0.75000000 </v>
   <v>       0.66666667       0.33333333       0.25000000 </v>
  </varray>
 </structure>
 <calculation>
  <scstep>
   <time name="dav">    8.48    8.48</time>
   <time name="total">    8.77    8.93</time>
   <energy>
    <i name="alphaZ">     33.78354689 </i>
    <i name="ewald">   -405.89709528 </i>
    <i name="hartreedc">   -245.52857033 </i>
    <i name="XCdc">     54.17505747 </i>
    <i name="pawpsdc">    496.68642706 </i>
    <i name="pawaedc">   -497.33517534 </i>
    <i name="eentropy">     -0.00067075 </i>
    <i name="bandstr">    -84.02678976 </i>
    <i name="atom">    671.41057895 </i>
    <i name="e_fr_energy">     23.26730891 </i>
    <i name="e_wo_entrp">     23.26797966 </i>
    <i name="e_0_energy">     23.26764429 </i>
   </energy>
  </scstep>
  <scstep>
   <time name="dav">   11.94   11.94</time>
   <time name="total">   11.94   11.95</time>
   <energy>
    <i name="e_fr_energy">    -36.80993599 </i>
    <i name="e_wo_entrp">    -36.80993599 </i>
    <i name="e_0_energy">    -36.80993599 </i>
   </energy>
  </scstep>
  <scstep>
   <time name="dav">    8.99    8.99</time>
   <time name="total">    8.99    8.99</time>
   <energy>
    <i name="e_fr_energy">    -37.29786742 </i>
    <i name="e_wo_entrp">    -37.29786742 </i>
    <i name="e_0_energy">    -37.29786742 </i>
   </energy>
  </scstep>
  <scstep>
   <time name="dav">   13.62   13.63</time>
   <time name="total">   13.63   13.63</time>
   <energy>
    <i name="e_fr_energy">    -37.29899618 </i>
    <i name="e_wo_entrp">    -37.29899618 </i>
    <i name="e_0_energy">    -37.29899618 </i>
   </energy>
  </scstep>
  <scstep>
   <time name="dav">    8.97    8.97</time>
   <time name="total">    9.08    9.08</time>
   <energy>
    <i name="e_fr_energy">    -37.29899626 </i>
    <i name="e_wo_entrp">    -37.29899626 </i>
    <i name="e_0_energy">    -37.29899626 </i>
   </energy>
  </scstep>
  <scstep>
   <time name="diag">    3.03    3.03</time>
   <time name="diis">    1.58    1.58</time>
   <time name="orth">    0.86    0.86</time>
   <time name="total">    5.87    5.87</time>
   <energy>
    <i name="e_fr_energy">    -33.97487553 </i>
    <i name="e_wo_entrp">    -33.97487553 </i>
    <i name="e_0_energy">    -33.97487553 </i>
   </energy>
  </scstep>
  <scstep>
   <time name="diag">    3.02    3.02</time>
   <time name="diis">    1.67    1.67</time>
   <time name="orth">    0.87    0.87</time>
   <time name="total">    5.95    5.95</time>
   <energy>
    <i name="e_fr_energy">    -33.88953392 </i>
    <i name="e_wo_entrp">    -33.88953392 </i>
    <i name="e_0_energy">    -33.88953392 </i>
   </energy>
  </scstep>
  <scstep>
   <time name="diag">    3.02    3.02</time>
   <time name="diis">    1.62    1.62</time>
   <time name="orth">    0.86    0.86</time>
   <time name="total">    5.90    5.90</time>
   <energy>
    <i name="e_fr_energy">    -33.80775619 </i>
    <i name="e_wo_entrp">    -33.80775619 </i>
    <i name="e_0_energy">    -33.80775619 </i>
   </energy>
  </scstep>
  <scstep>
   <time name="diag">    3.02    3.02</time>
   <time name="diis">    1.60    1.60</time>
   <time name="orth">    0.87    0.87</time>
   <time name="total">    5.88    5.88</time>
   <energy>
    <i name="e_fr_energy">    -33.81771560 </i>
    <i name="e_wo_entrp">    -33.81771560 </i>
    <i name="e_0_energy">    -33.81771560 </i>
   </energy>
  </scstep>
  <scstep>
   <time name="diag">    3.03    3.03</time>
   <time name="diis">    1.73    1.73</time>
   <time name="orth">    0.86    0.86</time>
   <time name="total">    6.00    6.00</time>
   <energy>
    <i name="e_fr_energy">    -33.81934056 </i>
    <i name="e_wo_entrp">    -33.81934056 </i>
    <i name="e_0_energy">    -33.81934056 </i>
   </energy>
  </scstep>
  <scstep>
   <time name="diag">    3.02    3.02</time>
   <time name="diis">    1.54    1.55</time>
   <time name="orth">    0.87    0.87</time>
   <time name="total">    5.82    5.83</time>
   <energy>
    <i name="e_fr_energy">    -33.82042680 </i>
    <i name="e_wo_entrp">    -33.82042680 </i>
    <i name="e_0_energy">    -33.82042680 </i>
   </energy>
  </scstep>
  <scstep>
   <time name="diag">    3.03    3.03</time>
   <time name="diis">    1.39    1.39</time>
   <time name="orth">    0.86    0.86</time>
   <time name="total">    5.57    5.57</time>
   <energy>
    <i name="alphaZ">     33.78354689 </i>
    <i name="ewald">   -405.89709528 </i>
    <i name="hartreedc">   -296.38051805 </i>
    <i name="XCdc">     56.83304048 </i>
    <i name="pawpsdc">   1855.49694123 </i>
    <i name="pawaedc">  -1857.01626062 </i>
    <i name="eentropy">     -0.00000000 </i>
    <i name="bandstr">    -92.05084978 </i>
    <i name="atom">    671.41057895 </i>
    <i name="e_fr_energy">    -33.82061618 </i>
    <i name="e_wo_entrp">    -33.82061618 </i>
    <i name="e_0_energy">    -33.82061618 </i>
   </energy>
  </scstep>
  <structure>
   <crystal>
    <varray name="basis" >
     <v>       1.25621411      -2.17582667       0.00000000 </v>
     <v>       1.25621411       2.17582667       0.00000000 </v>
     <v>       0.00000000       0.00000000       7.70726500 </v>
    </varray>
    <i name="volume">     42.13259918 </i>
    <varray name="rec_basis" >
     <v>       0.39802132      -0.22979772       0.00000000 </v>
     <v>       0.39802132       0.22979772       0.00000000 </v>
     <v>       0.00000000       0.00000000       0.12974771 </v>
    </varray>
   </crystal>
   <varray name="positions" >
    <v>       0.33333333       0.66666667       0.25000000 </v>
    <v>       0.66666667       0.33333333       0.75000000 </v>
    <v>       0.33333333       0.66666667       0.75000000 </v>
    <v>       0.66666667       0.33333333       0.25000000 </v>
   </varray>
  </structure>
  <varray name="forces" >
   <v>       0.00000000      -0.00000000       0.00000000 </v>
   <v>      -0.00000000       0.00000000      -0.00000000 </v>
   <v>      -0.00000000       0.00000000      -0.00000000 </v>
   <v>      -0.00000000      -0.00000000       0.00000000 </v>
  </varray>
  <varray name="stress" >
   <v>      67.92731863      -0.00000000       0.00000000 </v>
   <v>      -0.00000000      67.92731863      -0.00000000 </v>
   <v>       0.00000000      -0.00000000       6.31078782 </v>
  </varray>
  <energy>
   <i name="e_fr_energy">    -33.82061618 </i>
   <i name="e_wo_entrp">    -33.82061618 </i>
   <i name="e_0_energy">     -0.00000000 </i>
  </energy>
  <time name="totalsc">   96.62   97.90</time>
  <eigenvalues>
   <array>
    <dimension dim="1">band</dimension>
    <dimension dim="2">kpoint</dimension>
    <dimension dim="3">spin</dimension>
    <field>eigene</field>
    <field>occ</field>
    <set>
     <set comment="spin 1">
      <set comment="kpoint 1">
       <r>  -16.3878    1.0000 </r>
       <r>  -16.3003    1.0000 </r>
       <r>   -4.4433    1.0000 </r>
       <r>   -3.4505    1.0000 </r>
       <r>   -0.0502    1.0000 </r>
       <r>   -0.0502    1.0000 </r>
       <r>   -0.0427    1.0000 </r>
       <r>   -0.0427    1.0000 </r>
       <r>    5.7412    0.0000 </r>
       <r>    9.8002    0.0000 </r>
       <r>   12.1660    0.0000 </r>
       <r>   12.6772    0.0000 </r>
       <r>   12.6772    0.0000 </r>
       <r>   12.7107    0.0000 </r>
       <r>   12.7107    0.0000 </r>
       <r>   13.8952    0.0000 </r>
       <r>   15.1448    0.0000 </r>
       <r>   15.9061    0.0000 </r>
       <r>   18.9227    0.0000 </r>
       <r>   24.6844    0.0000 </r>
      </set>
      <set comment="kpoint 2">
       <r>  -16.3836    1.0000 </r>
       <r>  -16.2962    1.0000 </r>
       <r>   -4.4371    1.0000 </r>
       <r>   -3.4457    1.0000 </r>
       <r>   -0.0685    1.0000 </r>
       <r>   -0.0613    1.0000 </r>
       <r>   -0.0587    1.0000 </r>
       <r>   -0.0513    1.0000 </r>
       <r>    5.7506    0.0000 </r>
       <r>    9.7980    0.0000 </r>
       <r>   12.1751    0.0000 </r>
       <r>   12.6743    0.0000 </r>
       <r>   12.6962    0.0000 </r>
       <r>   12.7139    0.0000 </r>
       <r>   12.7297    0.0000 </r>
       <r>   13.8809    0.0000 </r>
       <r>   15.1598    0.0000 </r>
       <r>   15.8930    0.0000 </r>
       <r>   18.9357    0.0000 </r>
       <r>   24.6698    0.0000 </r>
      </set>
      <set comment="kpoint 3">
       <r>  -16.3709    1.0000 </r>
       <r>  -16.2839    1.0000 </r>
       <r>   -4.4186    1.0000 </r>
       <r>   -3.4314    1.0000 </r>
       <r>   -0.1231    1.0000 </r>
       <r>   -0.1167    1.0000 </r>
       <r>   -0.0843    1.0000 </r>
       <r>   -0.0767    1.0000 </r>
       <r>    5.7788    0.0000 </r>
       <r>    9.7918    0.0000 </r>
       <r>   12.1996    0.0000 </r>
       <r>   12.6670    0.0000 </r>
       <r>   12.7241    0.0000 </r>
       <r>   12.7528    0.0000 </r>
       <r>   12.7862    0.0000 </r>
       <r>   13.8382    0.0000 </r>
       <r>   15.2044    0.0000 </r>
       <r>   15.8540    0.0000 </r>
       <r>   18.9738    0.0000 </r>
       <r>   24.6264    0.0000 </r>
      </set>
      <set comment="kpoint 4">
       <r>  -16.3497    1.0000 </r>
       <r>  -16.2634    1.0000 </r>
       <r>   -4.3876    1.0000 </r>
       <r>   -3.4074    1.0000 </r>
       <r>   -0.2129    1.0000 </r>
       <r>   -0.2078    1.0000 </r>
       <r>   -0.1261    1.0000 </r>
       <r>   -0.1184    1.0000 </r>
       <r>    5.8254    0.0000 </r>
       <r>    9.7821    0.0000 </r>
       <r>   12.2307    0.0000 </r>
       <r>   12.6567    0.0000 </r>
       <r>   12.7469    0.0000 </r>
       <r>   12.8465    0.0000 </r>
       <r>   12.8796    0.0000 </r>
       <r>   13.7680    0.0000 </r>
       <r>   15.2772    0.0000 </r>
       <r>   15.7910    0.0000 </r>
       <r>   19.0359    0.0000 </r>
       <r>   24.5548    0.0000 </r>
      </set>
      <set comment="kpoint 5">
       <r>  -16.3201    1.0000 </r>
       <r>  -16.2348    1.0000 </r>
       <r>   -4.3444    1.0000 </r>
       <r>   -3.3739    1.0000 </r>
       <r>   -0.3363    1.0000 </r>
       <r>   -0.3326    1.0000 </r>
       <r>   -0.1835    1.0000 </r>
       <r>   -0.1756    1.0000 </r>
       <r>    5.8897    0.0000 </r>
       <r>    9.7697    0.0000 </r>
       <r>   12.2557    0.0000 </r>
       <r>   12.6435    0.0000 </r>
       <r>   12.7930    0.0000 </r>
       <r>   12.9762    0.0000 </r>
       <r>   13.0091    0.0000 </r>
       <r>   13.6711    0.0000 </r>
       <r>   15.3764    0.0000 </r>
       <r>   15.7067    0.0000 </r>
       <r>   19.1199    0.0000 </r>
       <r>   24.4562    0.0000 </r>
      </set>
      <set comment="kpoint 6">
       <r>  -16.2821    1.0000 </r>
       <r>  -16.1981    1.0000 </r>
       <r>   -4.2889    1.0000 </r>
       <r>   -3.3309    1.0000 </r>
       <r>   -0.4913    1.0000 </r>
       <r>   -0.4886    1.0000 </r>
       <r>   -0.2551    1.0000 </r>
       <r>   -0.2470    1.0000 </r>
       <r>    5.9709    0.0000 </r>
       <r>    9.7555    0.0000 </r>
       <r>   12.2632    0.0000 </r>
       <r>   12.6264    0.0000 </r>
       <r>   12.8711    0.0000 </r>
       <r>   13.1408    0.0000 </r>
       <r>   13.1732    0.0000 </r>
       <r>   13.5488    0.0000 </r>
       <r>   15.4998    0.0000 </r>
       <r>   15.6052    0.0000 </r>
       <r>   19.2232    0.0000 </r>
       <r>   24.3315    0.0000 </r>
      </set>
      <set comment="kpoint 7">
       <r>  -16.2359    1.0000 </r>
       <r>  -16.1533    1.0000 </r>
       <r>   -4.2213    1.0000 </r>
       <r>   -3.2784    1.0000 </r>
       <r>   -0.6755    1.0000 </r>
       <r>   -0.6731    1.0000 </r>
       <r>   -0.3396    1.0000 </r>
       <r>   -0.3312    1.0000 </r>
       <r>    6.0683    0.0000 </r>
       <r>    9.7401    0.0000 </r>
       <r>   12.2503    0.0000 </r>
       <r>   12.6048    0.0000 </r>
       <r>   12.9798    0.0000 </r>
       <r>   13.3384    0.0000 </r>
       <r>   13.3704    0.0000 </r>
       <r>   13.4021    0.0000 </r>
       <r>   15.4919    0.0000 </r>
       <r>   15.6450    0.0000 </r>
       <r>   19.3429    0.0000 </r>
       <r>   24.1811    0.0000 </r>
      </set>
      <set comment="kpoint 8">
       <r>  -16.1814    1.0000 </r>
       <r>  -16.1006    1.0000 </r>
       <r>   -4.1415    1.0000 </r>
       <r>   -3.2165    1.0000 </r>
       <r>   -0.8861    1.0000 </r>
       <r>   -0.8831    1.0000 </r>
       <r>   -0.4354    1.0000 </r>
       <r>   -0.4268    1.0000 </r>
       <r>    6.1810    0.0000 </r>
       <r>    9.7239    0.0000 </r>
       <r>   12.2204    0.0000 </r>
       <r>   12.5785    0.0000 </r>
       <r>   13.1090    0.0000 </r>
       <r>   13.2327    0.0000 </r>
       <r>   13.5673    0.0000 </r>
       <r>   13.5989    0.0000 </r>
       <r>   15.3744    0.0000 </r>
       <r>   15.8096    0.0000 </r>
       <r>   19.4758    0.0000 </r>
       <r>   24.0055    0.0000 </r>
      </set>
      <set comment="kpoint 9">
       <r>  -16.1188    1.0000 </r>
       <r>  -16.0400    1.0000 </r>
       <r>   -4.0499    1.0000 </r>
       <r>   -3.1452    1.0000 </r>
       <r>   -1.1199    1.0000 </r>
       <r>   -1.1162    1.0000 </r>
       <r>   -0.5409    1.0000 </r>
       <r>   -0.5321    1.0000 </r>
       <r>    6.3083    0.0000 </r>
       <r>    9.7068    0.0000 </r>
       <r>   12.1779    0.0000 </r>
       <r>   12.5472    0.0000 </r>
       <r>   13.0424    0.0000 </r>
       <r>   13.2441    0.0000 </r>
       <r>   13.8256    0.0000 </r>
       <r>   13.8568    0.0000 </r>
       <r>   15.2635    0.0000 </r>
       <r>   15.9912    0.0000 </r>
       <r>   19.6184    0.0000 </r>
       <r>   23.8049    0.0000 </r>
      </set>
      <set comment="kpoint 10">
       <r>  -16.0482    1.0000 </r>
       <r>  -15.9716    1.0000 </r>
       <r>   -3.9465    1.0000 </r>
       <r>   -3.0646    1.0000 </r>
       <r>   -1.3737    1.0000 </r>
       <r>   -1.3694    1.0000 </r>
       <r>   -0.6544    1.0000 </r>
       <r>   -0.6454    1.0000 </r>
       <r>    6.4494    0.0000 </r>
       <r>    9.6885    0.0000 </r>
       <r>   12.1261    0.0000 </r>
       <r>   12.5089    0.0000 </r>
       <r>   12.8353    0.0000 </r>
       <r>   13.3670    0.0000 </r>
       <r>   14.1114    0.0000 </r>
       <r>   14.1421    0.0000 </r>
       <r>   15.1749    0.0000 </r>
       <r>   16.1873    0.0000 </r>
       <r>   19.7671    0.0000 </r>
       <r>   23.5797    0.0000 </r>
      </set>
      <set comment="kpoint 11">
       <r>  -15.9697    1.0000 </r>
       <r>  -15.8956    1.0000 </r>
       <r>   -3.8315    1.0000 </r>
       <r>   -2.9748    1.0000 </r>
       <r>   -1.6447    1.0000 </r>
       <r>   -1.6400    1.0000 </r>
       <r>   -0.7743    1.0000 </r>
       <r>   -0.7651    1.0000 </r>
       <r>    6.6035    0.0000 </r>
       <r>    9.6683    0.0000 </r>
       <r>   12.0670    0.0000 </r>
       <r>   12.4498    0.0000 </r>
       <r>   12.6271    0.0000 </r>
       <r>   13.4561    0.0000 </r>
       <r>   14.4225    0.0000 </r>
       <r>   14.4527    0.0000 </r>
       <r>   15.1298    0.0000 </r>
       <r>   16.3955    0.0000 </r>
       <r>   19.9177    0.0000 </r>
       <r>   23.3308    0.0000 </r>
      </set>
      <set comment="kpoint 12">
       <r>  -15.8835    1.0000 </r>
       <r>  -15.8121    1.0000 </r>
       <r>   -3.7051    1.0000 </r>
       <r>   -2.8762    1.0000 </r>
       <r>   -1.9300    1.0000 </r>
       <r>   -1.9252    1.0000 </r>
       <r>   -0.8989    1.0000 </r>
       <r>   -0.8897    1.0000 </r>
       <r>    6.7700    0.0000 </r>
       <r>    9.6449    0.0000 </r>
       <r>   12.0013    0.0000 </r>
       <r>   12.2952    0.0000 </r>
       <r>   12.4950    0.0000 </r>
       <r>   13.4918    0.0000 </r>
       <r>   14.7568    0.0000 </r>
       <r>   14.7867    0.0000 </r>
       <r>   15.1486    0.0000 </r>
       <r>   16.6133    0.0000 </r>
       <r>   20.0655    0.0000 </r>
       <r>   23.0602    0.0000 </r>
      </set>
      <set comment="kpoint 13">
       <r>  -15.7898    1.0000 </r>
       <r>  -15.7212    1.0000 </r>
       <r>   -3.5677    1.0000 </r>
       <r>   -2.7694    1.0000 </r>
       <r>   -2.2269    1.0000 </r>
       <r>   -2.2219    1.0000 </r>
       <r>   -1.0269    1.0000 </r>
       <r>   -1.0175    1.0000 </r>
       <r>    6.9481    0.0000 </r>
       <r>    9.6165    0.0000 </r>
       <r>   11.9284    0.0000 </r>
       <r>   12.0494    0.0000 </r>
       <r>   12.4379    0.0000 </r>
       <r>   13.4676    0.0000 </r>
       <r>   15.1124    0.0000 </r>
       <r>   15.1418    0.0000 </r>
       <r>   15.2395    0.0000 </r>
       <r>   16.8385    0.0000 </r>
       <r>   20.2048    0.0000 </r>
       <r>   22.7707    0.0000 </r>
      </set>
      <set comment="kpoint 14">
       <r>  -15.6888    1.0000 </r>
       <r>  -15.6233    1.0000 </r>
       <r>   -3.4198    1.0000 </r>
       <r>   -2.6639    1.0000 </r>
       <r>   -2.5321    1.0000 </r>
       <r>   -2.5191    1.0000 </r>
       <r>   -1.1567    1.0000 </r>
       <r>   -1.1474    1.0000 </r>
       <r>    7.1367    0.0000 </r>
       <r>    9.5807    0.0000 </r>
       <r>   11.7713    0.0000 </r>
       <r>   11.8530    0.0000 </r>
       <r>   12.3945    0.0000 </r>
       <r>   13.3951    0.0000 </r>
       <r>   15.3939    0.0000 </r>
       <r>   15.4871    0.0000 </r>
       <r>   15.5161    0.0000 </r>
       <r>   17.0685    0.0000 </r>
       <r>   20.3282    0.0000 </r>
       <r>   22.4667    0.0000 </r>
      </set>
      <set comment="kpoint 15">
       <r>  -15.5808    1.0000 </r>
       <r>  -15.5185    1.0000 </r>
       <r>   -3.2630    1.0000 </r>
       <r>   -2.8557    1.0000 </r>
       <r>   -2.8436    1.0000 </r>
       <r>   -2.5169    1.0000 </r>
       <r>   -1.2872    1.0000 </r>
       <r>   -1.2778    1.0000 </r>
       <r>    7.3345    0.0000 </r>
       <r>    9.5344    0.0000 </r>
       <r>   11.4837    0.0000 </r>
       <r>   11.7651    0.0000 </r>
       <r>   12.3548    0.0000 </r>
       <r>   13.2955    0.0000 </r>
       <r>   15.5940    0.0000 </r>
       <r>   15.8789    0.0000 </r>
       <r>   15.9075    0.0000 </r>
       <r>   17.3009    0.0000 </r>
       <r>   20.4267    0.0000 </r>
       <r>   22.1532    0.0000 </r>
      </set>
      <set comment="kpoint 16">
       <r>  -15.4661    1.0000 </r>
       <r>  -15.4072    1.0000 </r>
       <r>   -3.1894    1.0000 </r>
       <r>   -3.1709    1.0000 </r>
       <r>   -3.0694    1.0000 </r>
       <r>   -2.3860    1.0000 </r>
       <r>   -1.4170    1.0000 </r>
       <r>   -1.4077    1.0000 </r>
       <r>    7.5398    0.0000 </r>
       <r>    9.4736    0.0000 </r>
       <r>   11.1854    0.0000 </r>
       <r>   11.6711    0.0000 </r>
       <r>   12.3174    0.0000 </r>
       <r>   13.1885    0.0000 </r>
       <r>   15.8237    0.0000 </r>
       <r>   16.2857    0.0000 </r>
       <r>   16.3141    0.0000 </r>
       <r>   17.5334    0.0000 </r>
       <r>   20.4893    0.0000 </r>
       <r>   21.8353    0.0000 </r>
      </set>
      <set comment="kpoint 17">
       <r>  -15.3451    1.0000 </r>
       <r>  -15.2897    1.0000 </r>
       <r>   -3.4984    1.0000 </r>
       <r>   -3.4914    1.0000 </r>
       <r>   -2.9062    1.0000 </r>
       <r>   -2.2444    1.0000 </r>
       <r>   -1.5451    1.0000 </r>
       <r>   -1.5360    1.0000 </r>
       <r>    7.7498    0.0000 </r>
       <r>    9.3940    0.0000 </r>
       <r>   10.8821    0.0000 </r>
       <r>   11.5713    0.0000 </r>
       <r>   12.2827    0.0000 </r>
       <r>   13.0886    0.0000 </r>
       <r>   16.0701    0.0000 </r>
       <r>   16.7055    0.0000 </r>
       <r>   16.7336    0.0000 </r>
       <r>   17.7628    0.0000 </r>
       <r>   20.5037    0.0000 </r>
       <r>   21.5180    0.0000 </r>
      </set>
      <set comment="kpoint 18">
       <r>  -15.2182    1.0000 </r>
       <r>  -15.1663    1.0000 </r>
       <r>   -3.8222    1.0000 </r>
       <r>   -3.8152    1.0000 </r>
       <r>   -2.7192    1.0000 </r>
       <r>   -2.0945    1.0000 </r>
       <r>   -1.6707    1.0000 </r>
       <r>   -1.6618    1.0000 </r>
       <r>    7.9599    0.0000 </r>
       <r>    9.2908    0.0000 </r>
       <r>   10.5800    0.0000 </r>
       <r>   11.4691    0.0000 </r>
       <r>   12.2515    0.0000 </r>
       <r>   13.0054    0.0000 </r>
       <r>   16.3242    0.0000 </r>
       <r>   17.1358    0.0000 </r>
       <r>   17.1638    0.0000 </r>
       <r>   17.9861    0.0000 </r>
       <r>   20.4592    0.0000 </r>
       <r>   21.2053    0.0000 </r>
      </set>
      <set comment="kpoint 19">
       <r>  -15.0858    1.0000 </r>
       <r>  -15.0377    1.0000 </r>
       <r>   -4.1463    1.0000 </r>
       <r>   -4.1389    1.0000 </r>
       <r>   -2.5226    1.0000 </r>
       <r>   -1.9371    1.0000 </r>
       <r>   -1.7927    1.0000 </r>
       <r>   -1.7840    1.0000 </r>
       <r>    8.1616    0.0000 </r>
       <r>    9.1599    0.0000 </r>
       <r>   10.2881    0.0000 </r>
       <r>   11.3693    0.0000 </r>
       <r>   12.2250    0.0000 </r>
       <r>   12.9441    0.0000 </r>
       <r>   16.5779    0.0000 </r>
       <r>   17.5745    0.0000 </r>
       <r>   17.6026    0.0000 </r>
       <r>   18.1997    0.0000 </r>
       <r>   20.3516    0.0000 </r>
       <r>   20.9008    0.0000 </r>
      </set>
      <set comment="kpoint 20">
       <r>  -14.9487    1.0000 </r>
       <r>  -14.9043    1.0000 </r>
       <r>   -4.4685    1.0000 </r>
       <r>   -4.4607    1.0000 </r>
       <r>   -2.3177    1.0000 </r>
       <r>   -1.9105    1.0000 </r>
       <r>   -1.9021    1.0000 </r>
       <r>   -1.7727    1.0000 </r>
       <r>    8.3380    0.0000 </r>
       <r>    8.9992    0.0000 </r>
       <r>   10.0234    0.0000 </r>
       <r>   11.2770    0.0000 </r>
       <r>   12.2047    0.0000 </r>
       <r>   12.9065    0.0000 </r>
       <r>   16.8238    0.0000 </r>
       <r>   18.0193    0.0000 </r>
       <r>   18.0475    0.0000 </r>
       <r>   18.3985    0.0000 </r>
       <r>   20.1861    0.0000 </r>
       <r>   20.6066    0.0000 </r>
      </set>
      <set comment="kpoint 21">
       <r>  -14.8074    1.0000 </r>
       <r>  -14.7669    1.0000 </r>
       <r>   -4.7869    1.0000 </r>
       <r>   -4.7787    1.0000 </r>
       <r>   -2.1056    1.0000 </r>
       <r>   -2.0233    1.0000 </r>
       <r>   -2.0153    1.0000 </r>
       <r>   -1.6021    1.0000 </r>
       <r>    8.4529    0.0000 </r>
       <r>    8.8111    0.0000 </r>
       <r>    9.8195    0.0000 </r>
       <r>   11.1963    0.0000 </r>
       <r>   12.1928    0.0000 </r>
       <r>   12.8927    0.0000 </r>
       <r>   17.0533    0.0000 </r>
       <r>   18.4674    0.0000 </r>
       <r>   18.4959    0.0000 </r>
       <r>   18.5755    0.0000 </r>
       <r>   19.9787    0.0000 </r>
       <r>   20.3250    0.0000 </r>
      </set>
      <set comment="kpoint 22">
       <r>  -14.6628    1.0000 </r>
       <r>  -14.6262    1.0000 </r>
       <r>   -5.0996    1.0000 </r>
       <r>   -5.0911    1.0000 </r>
       <r>   -2.1305    1.0000 </r>
       <r>   -2.1229    1.0000 </r>
       <r>   -1.8874    1.0000 </r>
       <r>   -1.4261    1.0000 </r>
       <r>    8.4421    0.0000 </r>
       <r>    8.6100    0.0000 </r>
       <r>    9.7276    0.0000 </r>
       <r>   11.1293    0.0000 </r>
       <r>   12.1918    0.0000 </r>
       <r>   12.9017    0.0000 </r>
       <r>   17.2565    0.0000 </r>
       <r>   18.7175    0.0000 </r>
       <r>   18.9161    0.0000 </r>
       <r>   18.9450    0.0000 </r>
       <r>   19.7535    0.0000 </r>
       <r>   20.0608    0.0000 </r>
      </set>
      <set comment="kpoint 23">
       <r>  -14.5160    1.0000 </r>
       <r>  -14.4832    1.0000 </r>
       <r>   -5.4048    1.0000 </r>
       <r>   -5.3963    1.0000 </r>
       <r>   -2.2316    1.0000 </r>
       <r>   -2.2244    1.0000 </r>
       <r>   -1.6642    1.0000 </r>
       <r>   -1.2456    1.0000 </r>
       <r>    8.2692    0.0000 </r>
       <r>    8.4125    0.0000 </r>
       <r>    9.7704    0.0000 </r>
       <r>   11.0760    0.0000 </r>
       <r>   12.2052    0.0000 </r>
       <r>   12.9320    0.0000 </r>
       <r>   17.4192    0.0000 </r>
       <r>   18.7956    0.0000 </r>
       <r>   19.3623    0.0000 </r>
       <r>   19.3915    0.0000 </r>
       <r>   19.5469    0.0000 </r>
       <r>   19.8249    0.0000 </r>
      </set>
      <set comment="kpoint 24">
       <r>  -14.3679    1.0000 </r>
       <r>  -14.3390    1.0000 </r>
       <r>   -5.7006    1.0000 </r>
       <r>   -5.6922    1.0000 </r>
       <r>   -2.3262    1.0000 </r>
       <r>   -2.3194    1.0000 </r>
       <r>   -1.4375    1.0000 </r>
       <r>   -1.0619    1.0000 </r>
       <r>    8.0177    0.0000 </r>
       <r>    8.1821    0.0000 </r>
       <r>    9.9041    0.0000 </r>
       <r>   11.0348    0.0000 </r>
       <r>   12.2375    0.0000 </r>
       <r>   12.9823    0.0000 </r>
       <r>   17.5232    0.0000 </r>
       <r>   18.7553    0.0000 </r>
       <r>   19.4138    0.0000 </r>
       <r>   19.6385    0.0000 </r>
       <r>   19.8024    0.0000 </r>
       <r>   19.8319    0.0000 </r>
      </set>
      <set comment="kpoint 25">
       <r>  -14.2202    1.0000 </r>
       <r>  -14.1949    1.0000 </r>
       <r>   -5.9851    1.0000 </r>
       <r>   -5.9769    1.0000 </r>
       <r>   -2.4137    1.0000 </r>
       <r>   -2.4074    1.0000 </r>
       <r>   -1.2093    1.0000 </r>
       <r>   -0.8766    1.0000 </r>
       <r>    7.7432    0.0000 </r>
       <r>    7.9191    0.0000 </r>
       <r>   10.0753    0.0000 </r>
       <r>   11.0038    0.0000 </r>
       <r>   12.2943    0.0000 </r>
       <r>   13.0510    0.0000 </r>
       <r>   17.5482    0.0000 </r>
       <r>   18.5802    0.0000 </r>
       <r>   19.3578    0.0000 </r>
       <r>   19.5358    0.0000 </r>
       <r>   20.2327    0.0000 </r>
       <r>   20.2622    0.0000 </r>
      </set>
      <set comment="kpoint 26">
       <r>  -14.0743    1.0000 </r>
       <r>  -14.0527    1.0000 </r>
       <r>   -6.2560    1.0000 </r>
       <r>   -6.2481    1.0000 </r>
       <r>   -2.4938    1.0000 </r>
       <r>   -2.4881    1.0000 </r>
       <r>   -0.9816    1.0000 </r>
       <r>   -0.6914    1.0000 </r>
       <r>    7.4627    0.0000 </r>
       <r>    7.6415    0.0000 </r>
       <r>   10.2513    0.0000 </r>
       <r>   10.9809    0.0000 </r>
       <r>   12.3817    0.0000 </r>
       <r>   13.1366    0.0000 </r>
       <r>   17.4842    0.0000 </r>
       <r>   18.3299    0.0000 </r>
       <r>   19.3254    0.0000 </r>
       <r>   19.5231    0.0000 </r>
       <r>   20.6483    0.0000 </r>
       <r>   20.6775    0.0000 </r>
      </set>
      <set comment="kpoint 27">
       <r>  -13.9322    1.0000 </r>
       <r>  -13.9142    1.0000 </r>
       <r>   -6.5108    1.0000 </r>
       <r>   -6.5035    1.0000 </r>
       <r>   -2.5663    1.0000 </r>
       <r>   -2.5611    1.0000 </r>
       <r>   -0.7572    1.0000 </r>
       <r>   -0.5089    1.0000 </r>
       <r>    7.1856    0.0000 </r>
       <r>    7.3615    0.0000 </r>
       <r>   10.4132    0.0000 </r>
       <r>   10.9641    0.0000 </r>
       <r>   12.5053    0.0000 </r>
       <r>   13.2374    0.0000 </r>
       <r>   17.3406    0.0000 </r>
       <r>   18.0474    0.0000 </r>
       <r>   19.3236    0.0000 </r>
       <r>   19.5436    0.0000 </r>
       <r>   21.0444    0.0000 </r>
       <r>   21.0730    0.0000 </r>
      </set>
      <set comment="kpoint 28">
       <r>  -13.7963    1.0000 </r>
       <r>  -13.7817    1.0000 </r>
       <r>   -6.7470    1.0000 </r>
       <r>   -6.7405    1.0000 </r>
       <r>   -2.6308    1.0000 </r>
       <r>   -2.6262    1.0000 </r>
       <r>   -0.5394    1.0000 </r>
       <r>   -0.3317    1.0000 </r>
       <r>    6.9194    0.0000 </r>
       <r>    7.0873    0.0000 </r>
       <r>   10.5509    0.0000 </r>
       <r>   10.9520    0.0000 </r>
       <r>   12.6678    0.0000 </r>
       <r>   13.3515    0.0000 </r>
       <r>   17.1428    0.0000 </r>
       <r>   17.7484    0.0000 </r>
       <r>   19.3513    0.0000 </r>
       <r>   19.5638    0.0000 </r>
       <r>   21.4155    0.0000 </r>
       <r>   21.4428    0.0000 </r>
      </set>
      <set comment="kpoint 29">
       <r>  -13.6691    1.0000 </r>
       <r>  -13.6576    1.0000 </r>
       <r>   -6.9616    1.0000 </r>
       <r>   -6.9559    1.0000 </r>
       <r>   -2.6871    1.0000 </r>
       <r>   -2.6831    1.0000 </r>
       <r>   -0.3323    1.0000 </r>
       <r>   -0.1634    1.0000 </r>
       <r>    6.6709    0.0000 </r>
       <r>    6.8259    0.0000 </r>
       <r>   10.6604    0.0000 </r>
       <r>   10.9432    0.0000 </r>
       <r>   12.8673    0.0000 </r>
       <r>   13.4760    0.0000 </r>
       <r>   16.9168    0.0000 </r>
       <r>   17.4399    0.0000 </r>
       <r>   19.3933    0.0000 </r>
       <r>   19.5749    0.0000 </r>
       <r>   21.7553    0.0000 </r>
       <r>   21.7807    0.0000 </r>
      </set>
      <set comment="kpoint 30">
       <r>  -13.5534    1.0000 </r>
       <r>  -13.5449    1.0000 </r>
       <r>   -7.1515    1.0000 </r>
       <r>   -7.1467    1.0000 </r>
       <r>   -2.7350    1.0000 </r>
       <r>   -2.7316    1.0000 </r>
       <r>   -0.1407    1.0000 </r>
       <r>   -0.0083    1.0000 </r>
       <r>    6.4465    0.0000 </r>
       <r>    6.5841    0.0000 </r>
       <r>   10.7431    0.0000 </r>
       <r>   10.9367    0.0000 </r>
       <r>   13.0971    0.0000 </r>
       <r>   13.6076    0.0000 </r>
       <r>   16.6833    0.0000 </r>
       <r>   17.1273    0.0000 </r>
       <r>   19.4377    0.0000 </r>
       <r>   19.5771    0.0000 </r>
       <r>   22.0578    0.0000 </r>
       <r>   22.0801    0.0000 </r>
      </set>
      <set comment="kpoint 31">
       <r>  -13.4525    1.0000 </r>
       <r>  -13.4465    1.0000 </r>
       <r>   -7.3131    1.0000 </r>
       <r>   -7.3093    1.0000 </r>
       <r>   -2.7743    1.0000 </r>
       <r>   -2.7716    1.0000 </r>
       <r>    0.0298    1.0000 </r>
       <r>    0.1287    1.0000 </r>
       <r>    6.2528    0.0000 </r>
       <r>    6.3689    0.0000 </r>
       <r>   10.8030    0.0000 </r>
       <r>   10.9317    0.0000 </r>
       <r>   13.3458    0.0000 </r>
       <r>   13.7408    0.0000 </r>
       <r>   16.4581    0.0000 </r>
       <r>   16.8181    0.0000 </r>
       <r>   19.4771    0.0000 </r>
       <r>   19.5733    0.0000 </r>
       <r>   22.3162    0.0000 </r>
       <r>   22.3344    0.0000 </r>
      </set>
      <set comment="kpoint 32">
       <r>  -13.3696    1.0000 </r>
       <r>  -13.3657    1.0000 </r>
       <r>   -7.4433    1.0000 </r>
       <r>   -7.4405    1.0000 </r>
       <r>   -2.8049    1.0000 </r>
       <r>   -2.8029    1.0000 </r>
       <r>    0.1733    1.0000 </r>
       <r>    0.2422    1.0000 </r>
       <r>    6.0967    0.0000 </r>
       <r>    6.1873    0.0000 </r>
       <r>   10.8451    0.0000 </r>
       <r>   10.9271    0.0000 </r>
       <r>   13.5968    0.0000 </r>
       <r>   13.8678    0.0000 </r>
       <r>   16.2560    0.0000 </r>
       <r>   16.5239    0.0000 </r>
       <r>   19.5086    0.0000 </r>
       <r>   19.5662    0.0000 </r>
       <r>   22.5241    0.0000 </r>
       <r>   22.5377    0.0000 </r>
      </set>
      <set comment="kpoint 33">
       <r>  -13.3077    1.0000 </r>
       <r>  -13.3055    1.0000 </r>
       <r>   -7.5389    1.0000 </r>
       <r>   -7.5370    1.0000 </r>
       <r>   -2.8268    1.0000 </r>
       <r>   -2.8254    1.0000 </r>
       <r>    0.2835    1.0000 </r>
       <r>    0.3265    1.0000 </r>
       <r>    5.9842    0.0000 </r>
       <r>    6.0464    0.0000 </r>
       <r>   10.8742    0.0000 </r>
       <r>   10.9222    0.0000 </r>
       <r>   13.8262    0.0000 </r>
       <r>   13.9768    0.0000 </r>
       <r>   16.0931    0.0000 </r>
       <r>   16.2641    0.0000 </r>
       <r>   19.5309    0.0000 </r>
       <r>   19.5587    0.0000 </r>
       <r>   22.6764    0.0000 </r>
       <r>   22.6851    0.0000 </r>
      </set>
      <set comment="kpoint 34">
       <r>  -13.2694    1.0000 </r>
       <r>  -13.2684    1.0000 </r>
       <r>   -7.5972    1.0000 </r>
       <r>   -7.5963    1.0000 </r>
       <r>   -2.8398    1.0000 </r>
       <r>   -2.8391    1.0000 </r>
       <r>    0.3556    1.0000 </r>
       <r>    0.3760    1.0000 </r>
       <r>    5.9208    0.0000 </r>
       <r>    5.9525    0.0000 </r>
       <r>   10.8938    0.0000 </r>
       <r>   10.9159    0.0000 </r>
       <r>   13.9977    0.0000 </r>
       <r>   14.0519    0.0000 </r>
       <r>   15.9907    0.0000 </r>
       <r>   16.0695    0.0000 </r>
       <r>   19.5440    0.0000 </r>
       <r>   19.5530    0.0000 </r>
       <r>   22.7694    0.0000 </r>
       <r>   22.7736    0.0000 </r>
      </set>
      <set comment="kpoint 35">
       <r>  -13.2561    1.0000 </r>
       <r>  -13.2561    1.0000 </r>
       <r>   -7.6166    1.0000 </r>
       <r>   -7.6166    1.0000 </r>
       <r>   -2.8439    1.0000 </r>
       <r>   -2.8439    1.0000 </r>
       <r>    0.3866    1.0000 </r>
       <r>    0.3866    1.0000 </r>
       <r>    5.9099    0.0000 </r>
       <r>    5.9099    0.0000 </r>
       <r>   10.9070    0.0000 </r>
       <r>   10.9070    0.0000 </r>
       <r>   14.0712    0.0000 </r>
       <r>   14.0712    0.0000 </r>
       <r>   15.9754    0.0000 </r>
       <r>   15.9754    0.0000 </r>
       <r>   19.5497    0.0000 </r>
       <r>   19.5497    0.0000 </r>
       <r>   22.8020    0.0000 </r>
       <r>   22.8020    0.0000 </r>
      </set>
      <set comment="kpoint 36">
       <r>  -13.2658    1.0000 </r>
       <r>  -13.2466    1.0000 </r>
       <r>   -7.6257    1.0000 </r>
       <r>   -7.6062    1.0000 </r>
       <r>   -2.8513    1.0000 </r>
       <r>   -2.8365    1.0000 </r>
       <r>    0.1703    1.0000 </r>
       <r>    0.6018    1.0000 </r>
       <r>    5.6243    0.0000 </r>
       <r>    6.3216    0.0000 </r>
       <r>   10.5834    0.0000 </r>
       <r>   11.0664    0.0000 </r>
       <r>   13.3701    0.0000 </r>
       <r>   14.1320    0.0000 </r>
       <r>   15.6654    0.0000 </r>
       <r>   17.3915    0.0000 </r>
       <r>   19.8149    0.0000 </r>
       <r>   20.4222    0.0000 </r>
       <r>   22.7739    0.0000 </r>
       <r>   22.9110    0.0000 </r>
      </set>
      <set comment="kpoint 37">
       <r>  -13.2649    1.0000 </r>
       <r>  -13.2457    1.0000 </r>
       <r>   -7.6246    1.0000 </r>
       <r>   -7.6051    1.0000 </r>
       <r>   -2.8571    1.0000 </r>
       <r>   -2.8423    1.0000 </r>
       <r>    0.1718    1.0000 </r>
       <r>    0.6031    1.0000 </r>
       <r>    5.6250    0.0000 </r>
       <r>    6.3215    0.0000 </r>
       <r>   10.5909    0.0000 </r>
       <r>   11.0749    0.0000 </r>
       <r>   13.3717    0.0000 </r>
       <r>   14.1350    0.0000 </r>
       <r>   15.6576    0.0000 </r>
       <r>   17.3923    0.0000 </r>
       <r>   19.8139    0.0000 </r>
       <r>   20.4186    0.0000 </r>
       <r>   22.7733    0.0000 </r>
       <r>   22.9060    0.0000 </r>
      </set>
      <set comment="kpoint 38">
       <r>  -13.2621    1.0000 </r>
       <r>  -13.2429    1.0000 </r>
       <r>   -7.6212    1.0000 </r>
       <r>   -7.6017    1.0000 </r>
       <r>   -2.8744    1.0000 </r>
       <r>   -2.8596    1.0000 </r>
       <r>    0.1763    1.0000 </r>
       <r>    0.6069    1.0000 </r>
       <r>    5.6271    0.0000 </r>
       <r>    6.3210    0.0000 </r>
       <r>   10.6131    0.0000 </r>
       <r>   11.1004    0.0000 </r>
       <r>   13.3764    0.0000 </r>
       <r>   14.1442    0.0000 </r>
       <r>   15.6343    0.0000 </r>
       <r>   17.3951    0.0000 </r>
       <r>   19.8109    0.0000 </r>
       <r>   20.4083    0.0000 </r>
       <r>   22.7711    0.0000 </r>
       <r>   22.8910    0.0000 </r>
      </set>
      <set comment="kpoint 39">
       <r>  -13.2575    1.0000 </r>
       <r>  -13.2383    1.0000 </r>
       <r>   -7.6156    1.0000 </r>
       <r>   -7.5960    1.0000 </r>
       <r>   -2.9031    1.0000 </r>
       <r>   -2.8882    1.0000 </r>
       <r>    0.1837    1.0000 </r>
       <r>    0.6132    1.0000 </r>
       <r>    5.6306    0.0000 </r>
       <r>    6.3202    0.0000 </r>
       <r>   10.6500    0.0000 </r>
       <r>   11.1427    0.0000 </r>
       <r>   13.3841    0.0000 </r>
       <r>   14.1595    0.0000 </r>
       <r>   15.5958    0.0000 </r>
       <r>   17.3995    0.0000 </r>
       <r>   19.8060    0.0000 </r>
       <r>   20.3912    0.0000 </r>
       <r>   22.7679    0.0000 </r>
       <r>   22.8664    0.0000 </r>
      </set>
      <set comment="kpoint 40">
       <r>  -13.2510    1.0000 </r>
       <r>  -13.2318    1.0000 </r>
       <r>   -7.6078    1.0000 </r>
       <r>   -7.5881    1.0000 </r>
       <r>   -2.9428    1.0000 </r>
       <r>   -2.9278    1.0000 </r>
       <r>    0.1941    1.0000 </r>
       <r>    0.6220    1.0000 </r>
       <r>    5.6354    0.0000 </r>
       <r>    6.3191    0.0000 </r>
       <r>   10.7011    0.0000 </r>
       <r>   11.2015    0.0000 </r>
       <r>   13.3950    0.0000 </r>
       <r>   14.1811    0.0000 </r>
       <r>   15.5424    0.0000 </r>
       <r>   17.4055    0.0000 </r>
       <r>   19.7991    0.0000 </r>
       <r>   20.3677    0.0000 </r>
       <r>   22.7615    0.0000 </r>
       <r>   22.8324    0.0000 </r>
      </set>
      <set comment="kpoint 41">
       <r>  -13.2427    1.0000 </r>
       <r>  -13.2235    1.0000 </r>
       <r>   -7.5977    1.0000 </r>
       <r>   -7.5779    1.0000 </r>
       <r>   -2.9933    1.0000 </r>
       <r>   -2.9781    1.0000 </r>
       <r>    0.2074    1.0000 </r>
       <r>    0.6333    1.0000 </r>
       <r>    5.6415    0.0000 </r>
       <r>    6.3175    0.0000 </r>
       <r>   10.7658    0.0000 </r>
       <r>   11.2762    0.0000 </r>
       <r>   13.4090    0.0000 </r>
       <r>   14.2090    0.0000 </r>
       <r>   15.4747    0.0000 </r>
       <r>   17.4127    0.0000 </r>
       <r>   19.7903    0.0000 </r>
       <r>   20.3382    0.0000 </r>
       <r>   22.7530    0.0000 </r>
       <r>   22.7893    0.0000 </r>
      </set>
      <set comment="kpoint 42">
       <r>  -13.2326    1.0000 </r>
       <r>  -13.2135    1.0000 </r>
       <r>   -7.5854    1.0000 </r>
       <r>   -7.5655    1.0000 </r>
       <r>   -3.0540    1.0000 </r>
       <r>   -3.0387    1.0000 </r>
       <r>    0.2236    1.0000 </r>
       <r>    0.6471    1.0000 </r>
       <r>    5.6488    0.0000 </r>
       <r>    6.3154    0.0000 </r>
       <r>   10.8435    0.0000 </r>
       <r>   11.3665    0.0000 </r>
       <r>   13.4259    0.0000 </r>
       <r>   14.2436    0.0000 </r>
       <r>   15.3932    0.0000 </r>
       <r>   17.4207    0.0000 </r>
       <r>   19.7794    0.0000 </r>
       <r>   20.3029    0.0000 </r>
       <r>   22.7123    0.0000 </r>
       <r>   22.7377    0.0000 </r>
      </set>
      <set comment="kpoint 43">
       <r>  -13.2207    1.0000 </r>
       <r>  -13.2017    1.0000 </r>
       <r>   -7.5709    1.0000 </r>
       <r>   -7.5508    1.0000 </r>
       <r>   -3.1244    1.0000 </r>
       <r>   -3.1089    1.0000 </r>
       <r>    0.2426    1.0000 </r>
       <r>    0.6632    1.0000 </r>
       <r>    5.6572    0.0000 </r>
       <r>    6.3128    0.0000 </r>
       <r>   10.9335    0.0000 </r>
       <r>   11.4715    0.0000 </r>
       <r>   13.4460    0.0000 </r>
       <r>   14.2849    0.0000 </r>
       <r>   15.2990    0.0000 </r>
       <r>   17.4290    0.0000 </r>
       <r>   19.7668    0.0000 </r>
       <r>   20.2627    0.0000 </r>
       <r>   22.6774    0.0000 </r>
       <r>   22.7102    0.0000 </r>
      </set>
      <set comment="kpoint 44">
       <r>  -13.2072    1.0000 </r>
       <r>  -13.1883    1.0000 </r>
       <r>   -7.5541    1.0000 </r>
       <r>   -7.5339    1.0000 </r>
       <r>   -3.2038    1.0000 </r>
       <r>   -3.1882    1.0000 </r>
       <r>    0.2645    1.0000 </r>
       <r>    0.6816    1.0000 </r>
       <r>    5.6666    0.0000 </r>
       <r>    6.3095    0.0000 </r>
       <r>   11.0347    0.0000 </r>
       <r>   11.5907    0.0000 </r>
       <r>   13.4689    0.0000 </r>
       <r>   14.3333    0.0000 </r>
       <r>   15.1929    0.0000 </r>
       <r>   17.4367    0.0000 </r>
       <r>   19.7520    0.0000 </r>
       <r>   20.1687    0.0000 </r>
       <r>   20.2183    0.0000 </r>
       <r>   22.6095    0.0000 </r>
      </set>
      <set comment="kpoint 45">
       <r>  -13.1920    1.0000 </r>
       <r>  -13.1733    1.0000 </r>
       <r>   -7.5352    1.0000 </r>
       <r>   -7.5147    1.0000 </r>
       <r>   -3.2918    1.0000 </r>
       <r>   -3.2759    1.0000 </r>
       <r>    0.2891    1.0000 </r>
       <r>    0.7022    1.0000 </r>
       <r>    5.6769    0.0000 </r>
       <r>    6.3055    0.0000 </r>
       <r>   11.1461    0.0000 </r>
       <r>   11.7231    0.0000 </r>
       <r>   13.4948    0.0000 </r>
       <r>   14.3891    0.0000 </r>
       <r>   15.0760    0.0000 </r>
       <r>   17.4430    0.0000 </r>
       <r>   19.7354    0.0000 </r>
       <r>   19.9781    0.0000 </r>
       <r>   20.1696    0.0000 </r>
       <r>   22.5341    0.0000 </r>
      </set>
      <set comment="kpoint 46">
       <r>  -13.1752    1.0000 </r>
       <r>  -13.1567    1.0000 </r>
       <r>   -7.5140    1.0000 </r>
       <r>   -7.4934    1.0000 </r>
       <r>   -3.3874    1.0000 </r>
       <r>   -3.3713    1.0000 </r>
       <r>    0.3164    1.0000 </r>
       <r>    0.7250    1.0000 </r>
       <r>    5.6880    0.0000 </r>
       <r>    6.3006    0.0000 </r>
       <r>   11.2667    0.0000 </r>
       <r>   11.8678    0.0000 </r>
       <r>   13.5236    0.0000 </r>
       <r>   14.4525    0.0000 </r>
       <r>   14.9496    0.0000 </r>
       <r>   17.4464    0.0000 </r>
       <r>   19.7168    0.0000 </r>
       <r>   19.7902    0.0000 </r>
       <r>   20.1174    0.0000 </r>
       <r>   22.4515    0.0000 </r>
      </set>
      <set comment="kpoint 47">
       <r>  -13.1569    1.0000 </r>
       <r>  -13.1386    1.0000 </r>
       <r>   -7.4907    1.0000 </r>
       <r>   -7.4698    1.0000 </r>
       <r>   -3.4901    1.0000 </r>
       <r>   -3.4737    1.0000 </r>
       <r>    0.3463    1.0000 </r>
       <r>    0.7499    1.0000 </r>
       <r>    5.6997    0.0000 </r>
       <r>    6.2947    0.0000 </r>
       <r>   11.3952    0.0000 </r>
       <r>   12.0240    0.0000 </r>
       <r>   13.5552    0.0000 </r>
       <r>   14.5241    0.0000 </r>
       <r>   14.8148    0.0000 </r>
       <r>   17.4453    0.0000 </r>
       <r>   19.6091    0.0000 </r>
       <r>   19.6963    0.0000 </r>
       <r>   20.0622    0.0000 </r>
       <r>   22.3623    0.0000 </r>
      </set>
      <set comment="kpoint 48">
       <r>  -13.1371    1.0000 </r>
       <r>  -13.1190    1.0000 </r>
       <r>   -7.4652    1.0000 </r>
       <r>   -7.4440    1.0000 </r>
       <r>   -3.5990    1.0000 </r>
       <r>   -3.5824    1.0000 </r>
       <r>    0.3788    1.0000 </r>
       <r>    0.7766    1.0000 </r>
       <r>    5.7117    0.0000 </r>
       <r>    6.2877    0.0000 </r>
       <r>   11.5305    0.0000 </r>
       <r>   12.1905    0.0000 </r>
       <r>   13.5895    0.0000 </r>
       <r>   14.6043    0.0000 </r>
       <r>   14.6732    0.0000 </r>
       <r>   17.4375    0.0000 </r>
       <r>   19.4391    0.0000 </r>
       <r>   19.6740    0.0000 </r>
       <r>   20.0044    0.0000 </r>
       <r>   22.2670    0.0000 </r>
      </set>
      <set comment="kpoint 49">
       <r>  -13.1161    1.0000 </r>
       <r>  -13.0983    1.0000 </r>
       <r>   -7.4376    1.0000 </r>
       <r>   -7.4161    1.0000 </r>
       <r>   -3.7135    1.0000 </r>
       <r>   -3.6965    1.0000 </r>
       <r>    0.4136    1.0000 </r>
       <r>    0.8052    1.0000 </r>
       <r>    5.7241    0.0000 </r>
       <r>    6.2794    0.0000 </r>
       <r>   11.6710    0.0000 </r>
       <r>   12.3662    0.0000 </r>
       <r>   13.6264    0.0000 </r>
       <r>   14.5260    0.0000 </r>
       <r>   14.6935    0.0000 </r>
       <r>   17.4203    0.0000 </r>
       <r>   19.2843    0.0000 </r>
       <r>   19.6497    0.0000 </r>
       <r>   19.9443    0.0000 </r>
       <r>   22.1653    0.0000 </r>
      </set>
      <set comment="kpoint 50">
       <r>  -13.0938    1.0000 </r>
       <r>  -13.0763    1.0000 </r>
       <r>   -7.4079    1.0000 </r>
       <r>   -7.3860    1.0000 </r>
       <r>   -3.8326    1.0000 </r>
       <r>   -3.8155    1.0000 </r>
       <r>    0.4508    1.0000 </r>
       <r>    0.8354    1.0000 </r>
       <r>    5.7364    0.0000 </r>
       <r>    6.2698    0.0000 </r>
       <r>   11.8156    0.0000 </r>
       <r>   12.5499    0.0000 </r>
       <r>   13.6658    0.0000 </r>
       <r>   14.3748    0.0000 </r>
       <r>   14.7923    0.0000 </r>
       <r>   17.3912    0.0000 </r>
       <r>   19.1490    0.0000 </r>
       <r>   19.6240    0.0000 </r>
       <r>   19.8827    0.0000 </r>
       <r>   22.0579    0.0000 </r>
      </set>
      <set comment="kpoint 51">
       <r>  -13.0704    1.0000 </r>
       <r>  -13.0532    1.0000 </r>
       <r>   -7.3761    1.0000 </r>
       <r>   -7.3537    1.0000 </r>
       <r>   -3.9558    1.0000 </r>
       <r>   -3.9384    1.0000 </r>
       <r>    0.4902    1.0000 </r>
       <r>    0.8671    1.0000 </r>
       <r>    5.7486    0.0000 </r>
       <r>    6.2588    0.0000 </r>
       <r>   11.9629    0.0000 </r>
       <r>   12.7404    0.0000 </r>
       <r>   13.7077    0.0000 </r>
       <r>   14.2209    0.0000 </r>
       <r>   14.9010    0.0000 </r>
       <r>   17.3477    0.0000 </r>
       <r>   19.0369    0.0000 </r>
       <r>   19.5963    0.0000 </r>
       <r>   19.8198    0.0000 </r>
       <r>   21.9449    0.0000 </r>
      </set>
      <set comment="kpoint 52">
       <r>  -13.0460    1.0000 </r>
       <r>  -13.0291    1.0000 </r>
       <r>   -7.3422    1.0000 </r>
       <r>   -7.3194    1.0000 </r>
       <r>   -4.0822    1.0000 </r>
       <r>   -4.0646    1.0000 </r>
       <r>    0.5317    1.0000 </r>
       <r>    0.9001    1.0000 </r>
       <r>    5.7605    0.0000 </r>
       <r>    6.2461    0.0000 </r>
       <r>   12.1115    0.0000 </r>
       <r>   12.9361    0.0000 </r>
       <r>   13.7521    0.0000 </r>
       <r>   14.0658    0.0000 </r>
       <r>   15.0201    0.0000 </r>
       <r>   17.2883    0.0000 </r>
       <r>   18.9504    0.0000 </r>
       <r>   19.5667    0.0000 </r>
       <r>   19.7557    0.0000 </r>
       <r>   21.8266    0.0000 </r>
      </set>
      <set comment="kpoint 53">
       <r>  -13.0207    1.0000 </r>
       <r>  -13.0042    1.0000 </r>
       <r>   -7.3063    1.0000 </r>
       <r>   -7.2831    1.0000 </r>
       <r>   -4.2111    1.0000 </r>
       <r>   -4.1933    1.0000 </r>
       <r>    0.5750    1.0000 </r>
       <r>    0.9341    1.0000 </r>
       <r>    5.7717    0.0000 </r>
       <r>    6.2318    0.0000 </r>
       <r>   12.2602    0.0000 </r>
       <r>   13.1355    0.0000 </r>
       <r>   13.7988    0.0000 </r>
       <r>   13.9110    0.0000 </r>
       <r>   15.1499    0.0000 </r>
       <r>   17.2130    0.0000 </r>
       <r>   18.8905    0.0000 </r>
       <r>   19.5356    0.0000 </r>
       <r>   19.6911    0.0000 </r>
       <r>   21.7033    0.0000 </r>
      </set>
      <set comment="kpoint 54">
       <r>  -12.9949    1.0000 </r>
       <r>  -12.9787    1.0000 </r>
       <r>   -7.2684    1.0000 </r>
       <r>   -7.2447    1.0000 </r>
       <r>   -4.3417    1.0000 </r>
       <r>   -4.3239    1.0000 </r>
       <r>    0.6200    1.0000 </r>
       <r>    0.9690    1.0000 </r>
       <r>    5.7821    0.0000 </r>
       <r>    6.2156    0.0000 </r>
       <r>   12.4079    0.0000 </r>
       <r>   13.3365    0.0000 </r>
       <r>   13.7576    0.0000 </r>
       <r>   13.8481    0.0000 </r>
       <r>   15.2907    0.0000 </r>
       <r>   17.1237    0.0000 </r>
       <r>   18.8561    0.0000 </r>
       <r>   19.5030    0.0000 </r>
       <r>   19.6263    0.0000 </r>
       <r>   21.5753    0.0000 </r>
      </set>
      <set comment="kpoint 55">
       <r>  -12.9684    1.0000 </r>
       <r>  -12.9527    1.0000 </r>
       <r>   -7.2287    1.0000 </r>
       <r>   -7.2044    1.0000 </r>
       <r>   -4.4733    1.0000 </r>
       <r>   -4.4554    1.0000 </r>
       <r>    0.6666    1.0000 </r>
       <r>    1.0044    1.0000 </r>
       <r>    5.7915    0.0000 </r>
       <r>    6.1977    0.0000 </r>
       <r>   12.5536    0.0000 </r>
       <r>   13.5363    0.0000 </r>
       <r>   13.6071    0.0000 </r>
       <r>   13.9007    0.0000 </r>
       <r>   15.4426    0.0000 </r>
       <r>   17.0237    0.0000 </r>
       <r>   18.8446    0.0000 </r>
       <r>   19.4688    0.0000 </r>
       <r>   19.5616    0.0000 </r>
       <r>   21.4428    0.0000 </r>
      </set>
      <set comment="kpoint 56">
       <r>  -12.9416    1.0000 </r>
       <r>  -12.9264    1.0000 </r>
       <r>   -7.1872    1.0000 </r>
       <r>   -7.1622    1.0000 </r>
       <r>   -4.6052    1.0000 </r>
       <r>   -4.5873    1.0000 </r>
       <r>    0.7144    1.0000 </r>
       <r>    1.0401    1.0000 </r>
       <r>    5.7997    0.0000 </r>
       <r>    6.1778    0.0000 </r>
       <r>   12.6964    0.0000 </r>
       <r>   13.4608    0.0000 </r>
       <r>   13.7296    0.0000 </r>
       <r>   13.9597    0.0000 </r>
       <r>   15.6056    0.0000 </r>
       <r>   16.9165    0.0000 </r>
       <r>   18.8530    0.0000 </r>
       <r>   19.4331    0.0000 </r>
       <r>   19.4975    0.0000 </r>
       <r>   21.3063    0.0000 </r>
      </set>
      <set comment="kpoint 57">
       <r>  -12.9146    1.0000 </r>
       <r>  -12.9000    1.0000 </r>
       <r>   -7.1439    1.0000 </r>
       <r>   -7.1182    1.0000 </r>
       <r>   -4.7366    1.0000 </r>
       <r>   -4.7187    1.0000 </r>
       <r>    0.7632    1.0000 </r>
       <r>    1.0757    1.0000 </r>
       <r>    5.8066    0.0000 </r>
       <r>    6.1561    0.0000 </r>
       <r>   12.8358    0.0000 </r>
       <r>   13.3199    0.0000 </r>
       <r>   13.8990    0.0000 </r>
       <r>   14.0399    0.0000 </r>
       <r>   15.7794    0.0000 </r>
       <r>   16.8061    0.0000 </r>
       <r>   18.8780    0.0000 </r>
       <r>   19.3959    0.0000 </r>
       <r>   19.4347    0.0000 </r>
       <r>   21.1662    0.0000 </r>
      </set>
      <set comment="kpoint 58">
       <r>  -12.8877    1.0000 </r>
       <r>  -12.8736    1.0000 </r>
       <r>   -7.0991    1.0000 </r>
       <r>   -7.0726    1.0000 </r>
       <r>   -4.8666    1.0000 </r>
       <r>   -4.8490    1.0000 </r>
       <r>    0.8128    1.0000 </r>
       <r>    1.1108    1.0000 </r>
       <r>    5.8120    0.0000 </r>
       <r>    6.1327    0.0000 </r>
       <r>   12.9710    0.0000 </r>
       <r>   13.1854    0.0000 </r>
       <r>   14.0062    0.0000 </r>
       <r>   14.1766    0.0000 </r>
       <r>   15.9633    0.0000 </r>
       <r>   16.6957    0.0000 </r>
       <r>   18.9170    0.0000 </r>
       <r>   19.3574    0.0000 </r>
       <r>   19.3739    0.0000 </r>
       <r>   21.0229    0.0000 </r>
      </set>
      <set comment="kpoint 59">
       <r>  -12.8611    1.0000 </r>
       <r>  -12.8477    1.0000 </r>
       <r>   -7.0528    1.0000 </r>
       <r>   -7.0254    1.0000 </r>
       <r>   -4.9947    1.0000 </r>
       <r>   -4.9774    1.0000 </r>
       <r>    0.8628    1.0000 </r>
       <r>    1.1451    1.0000 </r>
       <r>    5.8159    0.0000 </r>
       <r>    6.1076    0.0000 </r>
       <r>   13.0584    0.0000 </r>
       <r>   13.1019    0.0000 </r>
       <r>   14.0731    0.0000 </r>
       <r>   14.3444    0.0000 </r>
       <r>   16.1566    0.0000 </r>
       <r>   16.5880    0.0000 </r>
       <r>   18.9676    0.0000 </r>
       <r>   19.3166    0.0000 </r>
       <r>   19.3167    0.0000 </r>
       <r>   20.8770    0.0000 </r>
      </set>
      <set comment="kpoint 60">
       <r>  -12.8350    1.0000 </r>
       <r>  -12.8224    1.0000 </r>
       <r>   -7.0054    1.0000 </r>
       <r>   -6.9770    1.0000 </r>
       <r>   -5.1198    1.0000 </r>
       <r>   -5.1029    1.0000 </r>
       <r>    0.9128    1.0000 </r>
       <r>    1.1780    1.0000 </r>
       <r>    5.8183    0.0000 </r>
       <r>    6.0810    0.0000 </r>
       <r>   12.9400    0.0000 </r>
       <r>   13.2283    0.0000 </r>
       <r>   14.1296    0.0000 </r>
       <r>   14.5097    0.0000 </r>
       <r>   16.3586    0.0000 </r>
       <r>   16.4851    0.0000 </r>
       <r>   19.0284    0.0000 </r>
       <r>   19.2612    0.0000 </r>
       <r>   19.2754    0.0000 </r>
       <r>   20.7294    0.0000 </r>
      </set>
      <set comment="kpoint 61">
       <r>  -12.8098    1.0000 </r>
       <r>  -12.7981    1.0000 </r>
       <r>   -6.9571    1.0000 </r>
       <r>   -6.9275    1.0000 </r>
       <r>   -5.2411    1.0000 </r>
       <r>   -5.2249    1.0000 </r>
       <r>    0.9624    1.0000 </r>
       <r>    1.2090    1.0000 </r>
       <r>    5.8193    0.0000 </r>
       <r>    6.0531    0.0000 </r>
       <r>   12.8309    0.0000 </r>
       <r>   13.3502    0.0000 </r>
       <r>   14.1819    0.0000 </r>
       <r>   14.6620    0.0000 </r>
       <r>   16.3886    0.0000 </r>
[...]
        <r>  0.0024  0.0043  0.0000  0.0535  0.0000  0.0000  0.0000  0.0000  0.0000 </r>
       </set>
       <set comment="band 14">
        <r>  0.0006  0.2343  0.0000  0.0004  0.0000  0.0000  0.0000  0.0000  0.0000 </r>
        <r>  0.0006  0.2343  0.0000  0.0004  0.0000  0.0000  0.0000  0.0000  0.0000 </r>
        <r>  0.0012  0.0518  0.0000  0.0044  0.0000  0.0000  0.0000  0.0000  0.0000 </r>
        <r>  0.0012  0.0518  0.0000  0.0044  0.0000  0.0000  0.0000  0.0000  0.0000 </r>
       </set>
       <set comment="band 15">
        <r>  0.0001  0.2363  0.0000  0.0015  0.0000  0.0000  0.0000  0.0000  0.0000 </r>
        <r>  0.0001  0.2363  0.0000  0.0015  0.0000  0.0000  0.0000  0.0000  0.0000 </r>
        <r>  0.0001  0.0561  0.0000  0.0010  0.0000  0.0000  0.0000  0.0000  0.0000 </r>
        <r>  0.0001  0.0561  0.0000  0.0010  0.0000  0.0000  0.0000  0.0000  0.0000 </r>
       </set>
       <set comment="band 16">
        <r>  0.0000  0.0000  0.1520  0.0000  0.0000  0.0000  0.0000  0.0000  0.0000 </r>
        <r>  0.0000  0.0000  0.1520  0.0000  0.0000  0.0000  0.0000  0.0000  0.0000 </r>
        <r>  0.0000  0.0000  0.2174  0.0000  0.0000  0.0000  0.0000  0.0000  0.0000 </r>
        <r>  0.0000  0.0000  0.2174  0.0000  0.0000  0.0000  0.0000  0.0000  0.0000 </r>
       </set>
       <set comment="band 17">
        <r>  0.1647  0.0001  0.0000  0.0002  0.0000  0.0000  0.0000  0.0000  0.0000 </r>
        <r>  0.1647  0.0001  0.0000  0.0002  0.0000  0.0000  0.0000  0.0000  0.0000 </r>
        <r>  0.1314  0.0000  0.0000  0.0050  0.0000  0.0000  0.0000  0.0000  0.0000 </r>
        <r>  0.1314  0.0000  0.0000  0.0050  0.0000  0.0000  0.0000  0.0000  0.0000 </r>
       </set>
       <set comment="band 18">
        <r>  0.0000  0.0000  0.2714  0.0000  0.0000  0.0000  0.0000  0.0000  0.0000 </r>
        <r>  0.0000  0.0000  0.2714  0.0000  0.0000  0.0000  0.0000  0.0000  0.0000 </r>
        <r>  0.0000  0.0000  0.0799  0.0000  0.0000  0.0000  0.0000  0.0000  0.0000 </r>
        <r>  0.0000  0.0000  0.0799  0.0000  0.0000  0.0000  0.0000  0.0000  0.0000 </r>
       </set>
       <set comment="band 19">
        <r>  0.1036  0.0000  0.0000  0.0000  0.0000  0.0000  0.0000  0.0000  0.0000 </r>
        <r>  0.1036  0.0000  0.0000  0.0000  0.0000  0.0000  0.0000  0.0000  0.0000 </r>
        <r>  0.0166  0.0000  0.0000  0.0011  0.0000  0.0000  0.0000  0.0000  0.0000 </r>
        <r>  0.0166  0.0000  0.0000  0.0011  0.0000  0.0000  0.0000  0.0000  0.0000 </r>
       </set>
       <set comment="band 20">
        <r>  0.0000  0.0000  0.1529  0.0000  0.0000  0.0000  0.0000  0.0000  0.0000 </r>
        <r>  0.0000  0.0000  0.1529  0.0000  0.0000  0.0000  0.0000  0.0000  0.0000 </r>
        <r>  0.0000  0.0000  0.0251  0.0000  0.0000  0.0000  0.0000  0.0000  0.0000 </r>
        <r>  0.0000  0.0000  0.0251  0.0000  0.0000  0.0000  0.0000  0.0000  0.0000 </r>
       </set>
      </set>
      <set comment="kpoint 104">
       <set comment="band 1">
        <r>  0.1339  0.0000  0.0000  0.0001  0.0000  0.0000  0.0000  0.0000  0.0000 </r>
        <r>  0.1339  0.0000  0.0000  0.0001  0.0000  0.0000  0.0000  0.0000  0.0000 </r>
        <r>  0.2502  0.0000  0.0000  0.0000  0.0000  0.0000  0.0000  0.0000  0.0000 </r>
        <r>  0.2502  0.0000  0.0000  0.0000  0.0000  0.0000  0.0000  0.0000  0.0000 </r>
       </set>
       <set comment="band 2">
        <r>  0.1352  0.0000  0.0000  0.0001  0.0000  0.0000  0.0000  0.0000  0.0000 </r>
        <r>  0.1352  0.0000  0.0000  0.0001  0.0000  0.0000  0.0000  0.0000  0.0000 </r>
        <r>  0.2536  0.0000  0.0000  0.0000  0.0000  0.0000  0.0000  0.0000  0.0000 </r>
        <r>  0.2536  0.0000  0.0000  0.0000  0.0000  0.0000  0.0000  0.0000  0.0000 </r>
       </set>
       <set comment="band 3">
        <r>  0.0000  0.0000  0.0921  0.0000  0.0000  0.0000  0.0000  0.0000  0.0000 </r>
        <r>  0.0000  0.0000  0.0921  0.0000  0.0000  0.0000  0.0000  0.0000  0.0000 </r>
        <r>  0.0000  0.0000  0.1430  0.0000  0.0000  0.0000  0.0000  0.0000  0.0000 </r>
        <r>  0.0000  0.0000  0.1430  0.0000  0.0000  0.0000  0.0000  0.0000  0.0000 </r>
       </set>
       <set comment="band 4">
        <r>  0.0000  0.0000  0.1052  0.0000  0.0000  0.0000  0.0000  0.0000  0.0000 </r>
        <r>  0.0000  0.0000  0.1052  0.0000  0.0000  0.0000  0.0000  0.0000  0.0000 </r>
        <r>  0.0000  0.0000  0.1749  0.0000  0.0000  0.0000  0.0000  0.0000  0.0000 </r>
        <r>  0.0000  0.0000  0.1749  0.0000  0.0000  0.0000  0.0000  0.0000  0.0000 </r>
       </set>
       <set comment="band 5">
        <r>  0.0005  0.0003  0.0000  0.1380  0.0000  0.0000  0.0000  0.0000  0.0000 </r>
        <r>  0.0005  0.0003  0.0000  0.1380  0.0000  0.0000  0.0000  0.0000  0.0000 </r>
        <r>  0.0003  0.0001  0.0000  0.3111  0.0000  0.0000  0.0000  0.0000  0.0000 </r>
        <r>  0.0003  0.0001  0.0000  0.3111  0.0000  0.0000  0.0000  0.0000  0.0000 </r>
       </set>
       <set comment="band 6">
        <r>  0.0005  0.0021  0.0000  0.1362  0.0000  0.0000  0.0000  0.0000  0.0000 </r>
        <r>  0.0005  0.0021  0.0000  0.1362  0.0000  0.0000  0.0000  0.0000  0.0000 </r>
        <r>  0.0004  0.0009  0.0000  0.3105  0.0000  0.0000  0.0000  0.0000  0.0000 </r>
        <r>  0.0004  0.0009  0.0000  0.3105  0.0000  0.0000  0.0000  0.0000  0.0000 </r>
       </set>
       <set comment="band 7">
        <r>  0.0000  0.1367  0.0000  0.0021  0.0000  0.0000  0.0000  0.0000  0.0000 </r>
        <r>  0.0000  0.1367  0.0000  0.0021  0.0000  0.0000  0.0000  0.0000  0.0000 </r>
        <r>  0.0000  0.3108  0.0000  0.0009  0.0000  0.0000  0.0000  0.0000  0.0000 </r>
        <r>  0.0000  0.3108  0.0000  0.0009  0.0000  0.0000  0.0000  0.0000  0.0000 </r>
       </set>
       <set comment="band 8">
        <r>  0.0000  0.1385  0.0000  0.0003  0.0000  0.0000  0.0000  0.0000  0.0000 </r>
        <r>  0.0000  0.1385  0.0000  0.0003  0.0000  0.0000  0.0000  0.0000  0.0000 </r>
        <r>  0.0000  0.3119  0.0000  0.0001  0.0000  0.0000  0.0000  0.0000  0.0000 </r>
        <r>  0.0000  0.3119  0.0000  0.0001  0.0000  0.0000  0.0000  0.0000  0.0000 </r>
       </set>
       <set comment="band 9">
        <r>  0.0001  0.0000  0.0000  0.0000  0.0000  0.0000  0.0000  0.0000  0.0000 </r>
        <r>  0.0001  0.0000  0.0000  0.0000  0.0000  0.0000  0.0000  0.0000  0.0000 </r>
        <r>  0.0519  0.0000  0.0000  0.0003  0.0000  0.0000  0.0000  0.0000  0.0000 </r>
        <r>  0.0519  0.0000  0.0000  0.0003  0.0000  0.0000  0.0000  0.0000  0.0000 </r>
       </set>
       <set comment="band 10">
        <r>  0.0000  0.0000  0.0002  0.0000  0.0000  0.0000  0.0000  0.0000  0.0000 </r>
        <r>  0.0000  0.0000  0.0002  0.0000  0.0000  0.0000  0.0000  0.0000  0.0000 </r>
        <r>  0.0000  0.0000  0.1700  0.0000  0.0000  0.0000  0.0000  0.0000  0.0000 </r>
        <r>  0.0000  0.0000  0.1700  0.0000  0.0000  0.0000  0.0000  0.0000  0.0000 </r>
       </set>
       <set comment="band 11">
        <r>  0.0647  0.0002  0.0000  0.0032  0.0000  0.0000  0.0000  0.0000  0.0000 </r>
        <r>  0.0647  0.0002  0.0000  0.0032  0.0000  0.0000  0.0000  0.0000  0.0000 </r>
        <r>  0.1640  0.0000  0.0000  0.0000  0.0000  0.0000  0.0000  0.0000  0.0000 </r>
        <r>  0.1640  0.0000  0.0000  0.0000  0.0000  0.0000  0.0000  0.0000  0.0000 </r>
       </set>
       <set comment="band 12">
        <r>  0.0000  0.0002  0.0000  0.2373  0.0000  0.0000  0.0000  0.0000  0.0000 </r>
        <r>  0.0000  0.0002  0.0000  0.2373  0.0000  0.0000  0.0000  0.0000  0.0000 </r>
        <r>  0.0007  0.0004  0.0000  0.0537  0.0000  0.0000  0.0000  0.0000  0.0000 </r>
        <r>  0.0007  0.0004  0.0000  0.0537  0.0000  0.0000  0.0000  0.0000  0.0000 </r>
       </set>
       <set comment="band 13">
        <r>  0.0000  0.2370  0.0000  0.0009  0.0000  0.0000  0.0000  0.0000  0.0000 </r>
        <r>  0.0000  0.2370  0.0000  0.0009  0.0000  0.0000  0.0000  0.0000  0.0000 </r>
        <r>  0.0001  0.0549  0.0000  0.0001  0.0000  0.0000  0.0000  0.0000  0.0000 </r>
        <r>  0.0001  0.0549  0.0000  0.0001  0.0000  0.0000  0.0000  0.0000  0.0000 </r>
       </set>
       <set comment="band 14">
        <r>  0.0013  0.0008  0.0000  0.2342  0.0000  0.0000  0.0000  0.0000  0.0000 </r>
        <r>  0.0013  0.0008  0.0000  0.2342  0.0000  0.0000  0.0000  0.0000  0.0000 </r>
        <r>  0.0007  0.0001  0.0000  0.0561  0.0000  0.0000  0.0000  0.0000  0.0000 </r>
        <r>  0.0007  0.0001  0.0000  0.0561  0.0000  0.0000  0.0000  0.0000  0.0000 </r>
       </set>
       <set comment="band 15">
        <r>  0.0000  0.2384  0.0000  0.0002  0.0000  0.0000  0.0000  0.0000  0.0000 </r>
        <r>  0.0000  0.2384  0.0000  0.0002  0.0000  0.0000  0.0000  0.0000  0.0000 </r>
        <r>  0.0000  0.0557  0.0000  0.0004  0.0000  0.0000  0.0000  0.0000  0.0000 </r>
        <r>  0.0000  0.0557  0.0000  0.0004  0.0000  0.0000  0.0000  0.0000  0.0000 </r>
       </set>
       <set comment="band 16">
        <r>  0.0000  0.0000  0.1515  0.0000  0.0000  0.0000  0.0000  0.0000  0.0000 </r>
        <r>  0.0000  0.0000  0.1515  0.0000  0.0000  0.0000  0.0000  0.0000  0.0000 </r>
        <r>  0.0000  0.0000  0.2190  0.0000  0.0000  0.0000  0.0000  0.0000  0.0000 </r>
        <r>  0.0000  0.0000  0.2190  0.0000  0.0000  0.0000  0.0000  0.0000  0.0000 </r>
       </set>
       <set comment="band 17">
        <r>  0.1642  0.0000  0.0000  0.0001  0.0000  0.0000  0.0000  0.0000  0.0000 </r>
        <r>  0.1642  0.0000  0.0000  0.0001  0.0000  0.0000  0.0000  0.0000  0.0000 </r>
        <r>  0.1343  0.0000  0.0000  0.0013  0.0000  0.0000  0.0000  0.0000  0.0000 </r>
        <r>  0.1343  0.0000  0.0000  0.0013  0.0000  0.0000  0.0000  0.0000  0.0000 </r>
       </set>
       <set comment="band 18">
        <r>  0.0000  0.0000  0.2717  0.0000  0.0000  0.0000  0.0000  0.0000  0.0000 </r>
        <r>  0.0000  0.0000  0.2717  0.0000  0.0000  0.0000  0.0000  0.0000  0.0000 </r>
        <r>  0.0000  0.0000  0.0817  0.0000  0.0000  0.0000  0.0000  0.0000  0.0000 </r>
        <r>  0.0000  0.0000  0.0817  0.0000  0.0000  0.0000  0.0000  0.0000  0.0000 </r>
       </set>
       <set comment="band 19">
        <r>  0.1024  0.0000  0.0000  0.0000  0.0000  0.0000  0.0000  0.0000  0.0000 </r>
        <r>  0.1024  0.0000  0.0000  0.0000  0.0000  0.0000  0.0000  0.0000  0.0000 </r>
        <r>  0.0169  0.0000  0.0000  0.0003  0.0000  0.0000  0.0000  0.0000  0.0000 </r>
        <r>  0.0169  0.0000  0.0000  0.0003  0.0000  0.0000  0.0000  0.0000  0.0000 </r>
       </set>
       <set comment="band 20">
        <r>  0.0000  0.0000  0.1564  0.0000  0.0000  0.0000  0.0000  0.0000  0.0000 </r>
        <r>  0.0000  0.0000  0.1564  0.0000  0.0000  0.0000  0.0000  0.0000  0.0000 </r>
        <r>  0.0000  0.0000  0.0242  0.0000  0.0000  0.0000  0.0000  0.0000  0.0000 </r>
        <r>  0.0000  0.0000  0.0242  0.0000  0.0000  0.0000  0.0000  0.0000  0.0000 </r>
       </set>
      </set>
      <set comment="kpoint 105">
       <set comment="band 1">
        <r>  0.1341  0.0000  0.0000  0.0000  0.0000  0.0000  0.0000  0.0000  0.0000 </r>
        <r>  0.1341  0.0000  0.0000  0.0000  0.0000  0.0000  0.0000  0.0000  0.0000 </r>
        <r>  0.2501  0.0000  0.0000  0.0000  0.0000  0.0000  0.0000  0.0000  0.0000 </r>
        <r>  0.2501  0.0000  0.0000  0.0000  0.0000  0.0000  0.0000  0.0000  0.0000 </r>
       </set>
       <set comment="band 2">
        <r>  0.1353  0.0000  0.0000  0.0000  0.0000  0.0000  0.0000  0.0000  0.0000 </r>
        <r>  0.1353  0.0000  0.0000  0.0000  0.0000  0.0000  0.0000  0.0000  0.0000 </r>
        <r>  0.2536  0.0000  0.0000  0.0000  0.0000  0.0000  0.0000  0.0000  0.0000 </r>
        <r>  0.2536  0.0000  0.0000  0.0000  0.0000  0.0000  0.0000  0.0000  0.0000 </r>
       </set>
       <set comment="band 3">
        <r>  0.0000  0.0000  0.0921  0.0000  0.0000  0.0000  0.0000  0.0000  0.0000 </r>
        <r>  0.0000  0.0000  0.0921  0.0000  0.0000  0.0000  0.0000  0.0000  0.0000 </r>
        <r>  0.0000  0.0000  0.1429  0.0000  0.0000  0.0000  0.0000  0.0000  0.0000 </r>
        <r>  0.0000  0.0000  0.1429  0.0000  0.0000  0.0000  0.0000  0.0000  0.0000 </r>
       </set>
       <set comment="band 4">
        <r>  0.0000  0.0000  0.1052  0.0000  0.0000  0.0000  0.0000  0.0000  0.0000 </r>
        <r>  0.0000  0.0000  0.1052  0.0000  0.0000  0.0000  0.0000  0.0000  0.0000 </r>
        <r>  0.0000  0.0000  0.1749  0.0000  0.0000  0.0000  0.0000  0.0000  0.0000 </r>
        <r>  0.0000  0.0000  0.1749  0.0000  0.0000  0.0000  0.0000  0.0000  0.0000 </r>
       </set>
       <set comment="band 5">
        <r>  0.0000  0.1386  0.0000  0.0000  0.0000  0.0000  0.0000  0.0000  0.0000 </r>
        <r>  0.0000  0.1386  0.0000  0.0000  0.0000  0.0000  0.0000  0.0000  0.0000 </r>
        <r>  0.0000  0.3120  0.0000  0.0000  0.0000  0.0000  0.0000  0.0000  0.0000 </r>
        <r>  0.0000  0.3120  0.0000  0.0000  0.0000  0.0000  0.0000  0.0000  0.0000 </r>
       </set>
       <set comment="band 6">
        <r>  0.0000  0.0000  0.0000  0.1386  0.0000  0.0000  0.0000  0.0000  0.0000 </r>
        <r>  0.0000  0.0000  0.0000  0.1386  0.0000  0.0000  0.0000  0.0000  0.0000 </r>
        <r>  0.0000  0.0000  0.0000  0.3120  0.0000  0.0000  0.0000  0.0000  0.0000 </r>
        <r>  0.0000  0.0000  0.0000  0.3120  0.0000  0.0000  0.0000  0.0000  0.0000 </r>
       </set>
       <set comment="band 7">
        <r>  0.0000  0.1386  0.0000  0.0000  0.0000  0.0000  0.0000  0.0000  0.0000 </r>
        <r>  0.0000  0.1386  0.0000  0.0000  0.0000  0.0000  0.0000  0.0000  0.0000 </r>
        <r>  0.0000  0.3123  0.0000  0.0000  0.0000  0.0000  0.0000  0.0000  0.0000 </r>
        <r>  0.0000  0.3123  0.0000  0.0000  0.0000  0.0000  0.0000  0.0000  0.0000 </r>
       </set>
       <set comment="band 8">
        <r>  0.0000  0.0000  0.0000  0.1386  0.0000  0.0000  0.0000  0.0000  0.0000 </r>
        <r>  0.0000  0.0000  0.0000  0.1386  0.0000  0.0000  0.0000  0.0000  0.0000 </r>
        <r>  0.0000  0.0000  0.0000  0.3123  0.0000  0.0000  0.0000  0.0000  0.0000 </r>
        <r>  0.0000  0.0000  0.0000  0.3123  0.0000  0.0000  0.0000  0.0000  0.0000 </r>
       </set>
       <set comment="band 9">
        <r>  0.0001  0.0000  0.0000  0.0000  0.0000  0.0000  0.0000  0.0000  0.0000 </r>
        <r>  0.0001  0.0000  0.0000  0.0000  0.0000  0.0000  0.0000  0.0000  0.0000 </r>
        <r>  0.0521  0.0000  0.0000  0.0000  0.0000  0.0000  0.0000  0.0000  0.0000 </r>
        <r>  0.0521  0.0000  0.0000  0.0000  0.0000  0.0000  0.0000  0.0000  0.0000 </r>
       </set>
       <set comment="band 10">
        <r>  0.0000  0.0000  0.0002  0.0000  0.0000  0.0000  0.0000  0.0000  0.0000 </r>
        <r>  0.0000  0.0000  0.0002  0.0000  0.0000  0.0000  0.0000  0.0000  0.0000 </r>
        <r>  0.0000  0.0000  0.1697  0.0000  0.0000  0.0000  0.0000  0.0000  0.0000 </r>
        <r>  0.0000  0.0000  0.1697  0.0000  0.0000  0.0000  0.0000  0.0000  0.0000 </r>
       </set>
       <set comment="band 11">
        <r>  0.0662  0.0000  0.0000  0.0000  0.0000  0.0000  0.0000  0.0000  0.0000 </r>
        <r>  0.0662  0.0000  0.0000  0.0000  0.0000  0.0000  0.0000  0.0000  0.0000 </r>
        <r>  0.1651  0.0000  0.0000  0.0000  0.0000  0.0000  0.0000  0.0000  0.0000 </r>
        <r>  0.1651  0.0000  0.0000  0.0000  0.0000  0.0000  0.0000  0.0000  0.0000 </r>
       </set>
       <set comment="band 12">
        <r>  0.0000  0.0000  0.0000  0.2382  0.0000  0.0000  0.0000  0.0000  0.0000 </r>
        <r>  0.0000  0.0000  0.0000  0.2382  0.0000  0.0000  0.0000  0.0000  0.0000 </r>
        <r>  0.0000  0.0000  0.0000  0.0547  0.0000  0.0000  0.0000  0.0000  0.0000 </r>
        <r>  0.0000  0.0000  0.0000  0.0547  0.0000  0.0000  0.0000  0.0000  0.0000 </r>
       </set>
       <set comment="band 13">
        <r>  0.0000  0.2382  0.0000  0.0000  0.0000  0.0000  0.0000  0.0000  0.0000 </r>
        <r>  0.0000  0.2382  0.0000  0.0000  0.0000  0.0000  0.0000  0.0000  0.0000 </r>
        <r>  0.0000  0.0547  0.0000  0.0000  0.0000  0.0000  0.0000  0.0000  0.0000 </r>
        <r>  0.0000  0.0547  0.0000  0.0000  0.0000  0.0000  0.0000  0.0000  0.0000 </r>
       </set>
       <set comment="band 14">
        <r>  0.0000  0.0000  0.0000  0.2389  0.0000  0.0000  0.0000  0.0000  0.0000 </r>
        <r>  0.0000  0.0000  0.0000  0.2389  0.0000  0.0000  0.0000  0.0000  0.0000 </r>
        <r>  0.0000  0.0000  0.0000  0.0557  0.0000  0.0000  0.0000  0.0000  0.0000 </r>
        <r>  0.0000  0.0000  0.0000  0.0557  0.0000  0.0000  0.0000  0.0000  0.0000 </r>
       </set>
       <set comment="band 15">
        <r>  0.0000  0.2389  0.0000  0.0000  0.0000  0.0000  0.0000  0.0000  0.0000 </r>
        <r>  0.0000  0.2389  0.0000  0.0000  0.0000  0.0000  0.0000  0.0000  0.0000 </r>
        <r>  0.0000  0.0557  0.0000  0.0000  0.0000  0.0000  0.0000  0.0000  0.0000 </r>
        <r>  0.0000  0.0557  0.0000  0.0000  0.0000  0.0000  0.0000  0.0000  0.0000 </r>
       </set>
       <set comment="band 16">
        <r>  0.0000  0.0000  0.1514  0.0000  0.0000  0.0000  0.0000  0.0000  0.0000 </r>
        <r>  0.0000  0.0000  0.1514  0.0000  0.0000  0.0000  0.0000  0.0000  0.0000 </r>
        <r>  0.0000  0.0000  0.2195  0.0000  0.0000  0.0000  0.0000  0.0000  0.0000 </r>
        <r>  0.0000  0.0000  0.2195  0.0000  0.0000  0.0000  0.0000  0.0000  0.0000 </r>
       </set>
       <set comment="band 17">
        <r>  0.1640  0.0000  0.0000  0.0000  0.0000  0.0000  0.0000  0.0000  0.0000 </r>
        <r>  0.1640  0.0000  0.0000  0.0000  0.0000  0.0000  0.0000  0.0000  0.0000 </r>
        <r>  0.1353  0.0000  0.0000  0.0000  0.0000  0.0000  0.0000  0.0000  0.0000 </r>
        <r>  0.1353  0.0000  0.0000  0.0000  0.0000  0.0000  0.0000  0.0000  0.0000 </r>
       </set>
       <set comment="band 18">
        <r>  0.0000  0.0000  0.2719  0.0000  0.0000  0.0000  0.0000  0.0000  0.0000 </r>
        <r>  0.0000  0.0000  0.2719  0.0000  0.0000  0.0000  0.0000  0.0000  0.0000 </r>
        <r>  0.0000  0.0000  0.0823  0.0000  0.0000  0.0000  0.0000  0.0000  0.0000 </r>
        <r>  0.0000  0.0000  0.0823  0.0000  0.0000  0.0000  0.0000  0.0000  0.0000 </r>
       </set>
       <set comment="band 19">
        <r>  0.1020  0.0000  0.0000  0.0000  0.0000  0.0000  0.0000  0.0000  0.0000 </r>
        <r>  0.1020  0.0000  0.0000  0.0000  0.0000  0.0000  0.0000  0.0000  0.0000 </r>
        <r>  0.0170  0.0000  0.0000  0.0000  0.0000  0.0000  0.0000  0.0000  0.0000 </r>
        <r>  0.0170  0.0000  0.0000  0.0000  0.0000  0.0000  0.0000  0.0000  0.0000 </r>
       </set>
       <set comment="band 20">
        <r>  0.0000  0.0000  0.1576  0.0000  0.0000  0.0000  0.0000  0.0000  0.0000 </r>
        <r>  0.0000  0.0000  0.1576  0.0000  0.0000  0.0000  0.0000  0.0000  0.0000 </r>
        <r>  0.0000  0.0000  0.0239  0.0000  0.0000  0.0000  0.0000  0.0000  0.0000 </r>
        <r>  0.0000  0.0000  0.0239  0.0000  0.0000  0.0000  0.0000  0.0000  0.0000 </r>
       </set>
      </set>
     </set>
    </set>
   </array>
  </projected>
 </calculation>
 <structure name="finalpos" >
  <crystal>
   <varray name="basis" >
    <v>       1.25621411      -2.17582667       0.00000000 </v>
    <v>       1.25621411       2.17582667       0.00000000 </v>
    <v>       0.00000000       0.00000000       7.70726500 </v>
   </varray>
   <i name="volume">     42.13259918 </i>
   <varray name="rec_basis" >
    <v>       0.39802132      -0.22979772       0.00000000 </v>
    <v>       0.39802132       0.22979772       0.00000000 </v>
    <v>       0.00000000       0.00000000       0.12974771 </v>
   </varray>
  </crystal>
  <varray name="positions" >
   <v>       0.33333333       0.66666667       0.25000000 </v>
   <v>       0.66666667       0.33333333       0.75000000 </v>
   <v>       0.33333333       0.66666667       0.75000000 </v>
   <v>       0.66666667       0.33333333       0.25000000 </v>
  </varray>
 </structure>
</modeling>
