unknown system                          
           1
     1.256214   -2.175827    0.000000
     1.256214    2.175827    0.000000
     0.000000    0.000000    7.707265
   B    N 
   2   2
Direct configuration=     1
   0.33333333  0.66666667  0.25000000
   0.66666667  0.33333333  0.75000000
   0.33333333  0.66666667  0.75000000
   0.66666667  0.33333333  0.25000000
