
     Program PWSCF v.6.7MaX starts on 25Mar2024 at 19:54:13 

     This program is part of the open-source Quantum ESPRESSO suite
     for quantum simulation of materials; please cite
         "P. Giannozzi et al., J. Phys.:Condens. Matter 21 395502 (2009);
         "P. Giannozzi et al., J. Phys.:Condens. Matter 29 465901 (2017);
          URL http://www.quantum-espresso.org", 
     in publications or presentations arising from this work. More details at
     http://www.quantum-espresso.org/quote

     Parallel version (MPI), running on    18 processors

     MPI processes distributed on     1 nodes
     R & G space division:  proc/nbgrp/npool/nimage =      18
     Waiting for input...
     Reading input from standard input
Warning: card &IONS ignored
Warning: card       ION_DYNAMICS = 'BFGS', ignored
Warning: card / ignored
Warning: card &CELL ignored
Warning: card     CELL_DYNAMICS  = 'BFGS', ignored
Warning: card     PRESS          = 0.0, ignored
Warning: card     PRESS_CONV_THR = 0.5, ignored
Warning: card     CELL_DOFREE = 'IBRAV+2DXY' ignored
Warning: card / ignored

     Current dimensions of program PWSCF are:
     Max number of different atomic species (ntypx) = 10
     Max number of k-points (npk) =  40000
     Max angular momentum in pseudopotentials (lmaxx) =  3

     Atomic positions and unit cell read from directory:
     ./temp/sb4te3.save/
     Atomic positions from file used, from input discarded

     file Sb.upf: wavefunction(s)  5S renormalized
     file Te.upf: wavefunction(s)  5S 5P 4D 4D renormalized

     --------------------------------------------
     Parameters for DFT-D3 Dispersion Correction:
     --------------------------------------------
       Reference C6 values for interpolation: 

         atom   Coordination number   C6
         Sb         0.000           985.88
         Sb         0.975           946.94
         Sb         1.952           896.11
         Sb         2.932           834.76
         Te         0.000           851.07
         Te         0.981           850.20
         Te         1.964           837.16

       Values used:

         atom   Coordination number  R0_AB[au]  C6      C8
         Sb         4.399            3.794    834.76  89580.54
         Sb         4.399            3.794    834.76  89580.54
         Sb         4.398            3.794    834.76  89580.54
         Sb         4.398            3.794    834.76  89580.54
         Sb         4.398            3.794    834.76  89580.54
         Sb         4.398            3.794    834.76  89580.54
         Sb         4.032            3.794    834.76  89580.56
         Sb         4.032            3.794    834.76  89580.56
         Sb         4.031            3.794    834.76  89580.56
         Sb         4.030            3.794    834.76  89580.56
         Sb         4.030            3.794    834.76  89580.56
         Sb         4.031            3.794    834.76  89580.56
         Sb         4.762            3.794    834.76  89580.53
         Sb         4.762            3.794    834.76  89580.53
         Sb         4.761            3.794    834.76  89580.53
         Sb         4.764            3.794    834.76  89580.53
         Sb         4.764            3.794    834.76  89580.53
         Sb         4.761            3.794    834.76  89580.53
         Sb         4.723            3.794    834.76  89580.53
         Sb         4.723            3.794    834.76  89580.53
         Sb         4.726            3.794    834.76  89580.53
         Sb         4.720            3.794    834.76  89580.53
         Sb         4.720            3.794    834.76  89580.53
         Sb         4.726            3.794    834.76  89580.53
         Te         3.732            3.676    837.16  84978.05
         Te         3.732            3.676    837.16  84978.05
         Te         3.731            3.676    837.16  84978.05
         Te         3.730            3.676    837.16  84978.05
         Te         3.730            3.676    837.16  84978.05
         Te         3.731            3.676    837.16  84978.05
         Te         4.287            3.676    837.16  84978.05
         Te         4.287            3.676    837.16  84978.05
         Te         4.289            3.676    837.16  84978.05
         Te         4.286            3.676    837.16  84978.05
         Te         4.286            3.676    837.16  84978.05
         Te         4.289            3.676    837.16  84978.05
         Te         3.194            3.676    837.16  84978.06
         Te         3.194            3.676    837.16  84978.06
         Te         3.191            3.676    837.16  84978.06
         Te         3.193            3.676    837.16  84978.06
         Te         3.193            3.676    837.16  84978.06
         Te         3.191            3.676    837.16  84978.06

         Molecular C6 ( Ry / a.u.^6 ) =   1474189.45


     Subspace diagonalization in iterative solution of the eigenvalue problem:
     one sub-group per band group will be used
     scalapack distributed-memory algorithm (size of sub-group:  4*  4 procs)

     Message from routine setup:
     using ibrav=0 with symmetry is DISCOURAGED, use correct ibrav instead

     Parallelization info
     --------------------
     sticks:   dense  smooth     PW     G-vecs:    dense   smooth      PW
     Min          64      51     14                33498    23963    3656
     Max          65      52     15                33589    24044    3749
     Sum        1159     931    265               603605   431947   66217


     Title: 
     sb4te3                                                                     


     bravais-lattice index     =            0
     lattice parameter (alat)  =       8.0793  a.u.
     unit-cell volume          =    9037.7148 (a.u.)^3
     number of atoms/cell      =           42
     number of atomic types    =            2
     number of electrons       =       408.00
     number of Kohn-Sham states=          530
     kinetic-energy cutoff     =      50.0000  Ry
     charge density cutoff     =     250.0000  Ry
     Exchange-correlation= SLA  PW   PBX  PBC
                           (   1   4   3   4   0   0   0)
     Non magnetic calculation with spin-orbit


     celldm(1)=   8.079335  celldm(2)=   0.000000  celldm(3)=   0.000000
     celldm(4)=   0.000000  celldm(5)=   0.000000  celldm(6)=   0.000000

     crystal axes: (cart. coord. in units of alat)
               a(1) = (   1.016584   0.000000   0.000000 )  
               a(2) = (  -0.508292   0.880387   0.000000 )  
               a(3) = (   0.000000   0.000000  19.147616 )  

     reciprocal axes: (cart. coord. in units 2 pi/alat)
               b(1) = (  0.983687  0.567932 -0.000000 )  
               b(2) = (  0.000000  1.135864  0.000000 )  
               b(3) = (  0.000000 -0.000000  0.052226 )  


     PseudoPot. # 1 for Sb read from file:
     ./Sb.upf
     MD5 check sum: fdb47162c1d03e2226be93e80d85f130
     Pseudo is Projector augmented-wave + core cor, Zval =  5.0
     Generated using &quot;atomic&quot; code by A. Dal Corso  v.6.2.2
     Shape of augmentation charge: PSQ
     Using radial grid of 1243 points, 10 beta functions with: 
                l(1) =   0
                l(2) =   0
                l(3) =   1
                l(4) =   1
                l(5) =   1
                l(6) =   1
                l(7) =   2
                l(8) =   2
                l(9) =   2
               l(10) =   2
     Q(r) pseudized with 0 coefficients 


     PseudoPot. # 2 for Te read from file:
     ./Te.upf
     MD5 check sum: 2c31ffb1692c49818345304528ca1e89
     Pseudo is Projector augmented-wave + core cor, Zval = 16.0
     Generated using "atomic" code by A. Dal Corso  v.5.0.2 svn rev. 9415
     Shape of augmentation charge: PSQ
     Using radial grid of 1245 points, 10 beta functions with: 
                l(1) =   0
                l(2) =   0
                l(3) =   1
                l(4) =   1
                l(5) =   1
                l(6) =   1
                l(7) =   2
                l(8) =   2
                l(9) =   2
               l(10) =   2
     Q(r) pseudized with 0 coefficients 


     atomic species   valence    mass     pseudopotential
        Sb             5.00   121.76000     Sb( 1.00)
        Te            16.00   127.60000     Te( 1.00)

     12 Sym. Ops., with inversion, found


                                    s                        frac. trans.

      isym =  1     identity                                     

 cryst.   s( 1) = (     1          0          0      )
                  (     0          1          0      )
                  (     0          0          1      )

 cart.    s( 1) = (  1.0000000  0.0000000  0.0000000 )
                  (  0.0000000  1.0000000  0.0000000 )
                  (  0.0000000  0.0000000  1.0000000 )


      isym =  2     180 deg rotation - cart. axis [1,0,0]        

 cryst.   s( 2) = (     1          0          0      )
                  (    -1         -1          0      )
                  (     0          0         -1      )

 cart.    s( 2) = (  1.0000000  0.0000000  0.0000000 )
                  (  0.0000000 -1.0000000  0.0000000 )
                  (  0.0000000  0.0000000 -1.0000000 )


      isym =  3     120 deg rotation - cryst. axis [0,0,1]       

 cryst.   s( 3) = (     0          1          0      )
                  (    -1         -1          0      )
                  (     0          0          1      )

 cart.    s( 3) = ( -0.5000000 -0.8660254  0.0000000 )
                  (  0.8660254 -0.5000000  0.0000000 )
                  (  0.0000000  0.0000000  1.0000000 )


      isym =  4     120 deg rotation - cryst. axis [0,0,-1]      

 cryst.   s( 4) = (    -1         -1          0      )
                  (     1          0          0      )
                  (     0          0          1      )

 cart.    s( 4) = ( -0.5000000  0.8660254  0.0000000 )
                  ( -0.8660254 -0.5000000  0.0000000 )
                  (  0.0000000  0.0000000  1.0000000 )


      isym =  5     180 deg rotation - cryst. axis [0,1,0]       

 cryst.   s( 5) = (    -1         -1          0      )
                  (     0          1          0      )
                  (     0          0         -1      )

 cart.    s( 5) = ( -0.5000000 -0.8660254  0.0000000 )
                  ( -0.8660254  0.5000000  0.0000000 )
                  (  0.0000000  0.0000000 -1.0000000 )


      isym =  6     180 deg rotation - cryst. axis [1,1,0]       

 cryst.   s( 6) = (     0          1          0      )
                  (     1          0          0      )
                  (     0          0         -1      )

 cart.    s( 6) = ( -0.5000000  0.8660254  0.0000000 )
                  (  0.8660254  0.5000000  0.0000000 )
                  (  0.0000000  0.0000000 -1.0000000 )


      isym =  7     inversion                                    

 cryst.   s( 7) = (    -1          0          0      )
                  (     0         -1          0      )
                  (     0          0         -1      )

 cart.    s( 7) = ( -1.0000000  0.0000000  0.0000000 )
                  (  0.0000000 -1.0000000  0.0000000 )
                  (  0.0000000  0.0000000 -1.0000000 )


      isym =  8     inv. 180 deg rotation - cart. axis [1,0,0]   

 cryst.   s( 8) = (    -1          0          0      )
                  (     1          1          0      )
                  (     0          0          1      )

 cart.    s( 8) = ( -1.0000000  0.0000000  0.0000000 )
                  (  0.0000000  1.0000000  0.0000000 )
                  (  0.0000000  0.0000000  1.0000000 )


      isym =  9     inv. 120 deg rotation - cryst. axis [0,0,1]  

 cryst.   s( 9) = (     0         -1          0      )
                  (     1          1          0      )
                  (     0          0         -1      )

 cart.    s( 9) = (  0.5000000  0.8660254  0.0000000 )
                  ( -0.8660254  0.5000000  0.0000000 )
                  (  0.0000000  0.0000000 -1.0000000 )


      isym = 10     inv. 120 deg rotation - cryst. axis [0,0,-1] 

 cryst.   s(10) = (     1          1          0      )
                  (    -1          0          0      )
                  (     0          0         -1      )

 cart.    s(10) = (  0.5000000 -0.8660254  0.0000000 )
                  (  0.8660254  0.5000000  0.0000000 )
                  (  0.0000000  0.0000000 -1.0000000 )


      isym = 11     inv. 180 deg rotation - cryst. axis [0,1,0]  

 cryst.   s(11) = (     1          1          0      )
                  (     0         -1          0      )
                  (     0          0          1      )

 cart.    s(11) = (  0.5000000  0.8660254  0.0000000 )
                  (  0.8660254 -0.5000000  0.0000000 )
                  (  0.0000000  0.0000000  1.0000000 )


      isym = 12     inv. 180 deg rotation - cryst. axis [1,1,0]  

 cryst.   s(12) = (     0         -1          0      )
                  (    -1          0          0      )
                  (     0          0          1      )

 cart.    s(12) = (  0.5000000 -0.8660254  0.0000000 )
                  ( -0.8660254 -0.5000000  0.0000000 )
                  (  0.0000000  0.0000000  1.0000000 )


   Cartesian axes

     site n.     atom                  positions (alat units)
         1           Sb  tau(   1) = (   0.5082920   0.2934625   0.2657629  )
         2           Sb  tau(   2) = (   0.0000000   0.5869250  18.8818531  )
         3           Sb  tau(   3) = (   0.0000000   0.5869250   6.6483419  )
         4           Sb  tau(   4) = (   0.0000000   0.0000000   6.1166984  )
         5           Sb  tau(   5) = (   0.0000000   0.0000000  13.0309181  )
         6           Sb  tau(   6) = (   0.5082919   0.2934625  12.4992747  )
         7           Sb  tau(   7) = (   0.0000000   0.0000000   0.6239473  )
         8           Sb  tau(   8) = (   0.0000000   0.0000000  18.5236687  )
         9           Sb  tau(   9) = (   0.5082920   0.2934625   7.0065309  )
        10           Sb  tau(  10) = (   0.5082920   0.2934625   5.7585006  )
        11           Sb  tau(  11) = (   0.0000000   0.5869250  13.3891160  )
        12           Sb  tau(  12) = (   0.0000000   0.5869250  12.1410856  )
        13           Sb  tau(  13) = (   0.5082920   0.2934625   1.5778551  )
        14           Sb  tau(  14) = (   0.0000000   0.5869250  17.5697607  )
        15           Sb  tau(  15) = (   0.0000000   0.5869250   7.9605149  )
        16           Sb  tau(  16) = (   0.0000000   0.0000000   4.8044444  )
        17           Sb  tau(  17) = (   0.0000000   0.0000000  14.3431721  )
        18           Sb  tau(  18) = (   0.5082919   0.2934625  11.1871011  )
        19           Sb  tau(  19) = (   0.0000000   0.5869250   2.4882201  )
        20           Sb  tau(  20) = (   0.5082919   0.2934625  16.6593956  )
        21           Sb  tau(  21) = (   0.0000000   0.0000000   8.8707405  )
        22           Sb  tau(  22) = (   0.0000000   0.5869250   3.8939687  )
        23           Sb  tau(  23) = (   0.5082920   0.2934625  15.2536467  )
        24           Sb  tau(  24) = (   0.0000000   0.0000000  10.2768755  )
        25           Te  tau(  25) = (   0.0000000   0.5869250   1.1790997  )
        26           Te  tau(  26) = (   0.5082919   0.2934625  17.9685166  )
        27           Te  tau(  27) = (   0.0000000   0.0000000   7.5617715  )
        28           Te  tau(  28) = (  -0.0000000   0.5869250   5.2030883  )
        29           Te  tau(  29) = (   0.5082920   0.2934625  13.9445277  )
        30           Te  tau(  30) = (   0.0000000   0.0000000  11.5858439  )
        31           Te  tau(  31) = (   0.0000000   0.0000000   2.0297135  )
        32           Te  tau(  32) = (   0.0000000   0.0000000  17.1179028  )
        33           Te  tau(  33) = (   0.5082920   0.2934625   8.4124299  )
        34           Te  tau(  34) = (   0.5082920   0.2934625   4.3527425  )
        35           Te  tau(  35) = (   0.0000000   0.5869250  14.7948735  )
        36           Te  tau(  36) = (   0.0000000   0.5869250  10.7351855  )
        37           Te  tau(  37) = (   0.5082920   0.2934625   2.8811844  )
        38           Te  tau(  38) = (   0.0000000   0.5869250  16.2664310  )
        39           Te  tau(  39) = (   0.0000000   0.5869250   9.2635519  )
        40           Te  tau(  40) = (   0.0000000   0.0000000   3.5008807  )
        41           Te  tau(  41) = (   0.0000000   0.0000000  15.6467350  )
        42           Te  tau(  42) = (   0.5082919   0.2934625   9.8840641  )

   Crystallographic axes

     site n.     atom                  positions (cryst. coord.)
         1           Sb  tau(   1) = (  0.6666667  0.3333334  0.0138797  )
         2           Sb  tau(   2) = (  0.3333333  0.6666667  0.9861203  )
         3           Sb  tau(   3) = (  0.3333334  0.6666667  0.3472151  )
         4           Sb  tau(   4) = (  0.0000000  0.0000000  0.3194496  )
         5           Sb  tau(   5) = (  0.0000000  0.0000000  0.6805504  )
         6           Sb  tau(   6) = (  0.6666667  0.3333333  0.6527849  )
         7           Sb  tau(   7) = (  0.0000000  0.0000000  0.0325862  )
         8           Sb  tau(   8) = (  0.0000000  0.0000000  0.9674138  )
         9           Sb  tau(   9) = (  0.6666667  0.3333334  0.3659218  )
        10           Sb  tau(  10) = (  0.6666667  0.3333334  0.3007424  )
        11           Sb  tau(  11) = (  0.3333334  0.6666667  0.6992576  )
        12           Sb  tau(  12) = (  0.3333334  0.6666667  0.6340782  )
        13           Sb  tau(  13) = (  0.6666667  0.3333334  0.0824048  )
        14           Sb  tau(  14) = (  0.3333333  0.6666667  0.9175952  )
        15           Sb  tau(  15) = (  0.3333334  0.6666667  0.4157444  )
        16           Sb  tau(  16) = (  0.0000000  0.0000000  0.2509161  )
        17           Sb  tau(  17) = (  0.0000000  0.0000000  0.7490840  )
        18           Sb  tau(  18) = (  0.6666667  0.3333333  0.5842556  )
        19           Sb  tau(  19) = (  0.3333334  0.6666667  0.1299493  )
        20           Sb  tau(  20) = (  0.6666667  0.3333333  0.8700506  )
        21           Sb  tau(  21) = (  0.0000000  0.0000000  0.4632817  )
        22           Sb  tau(  22) = (  0.3333333  0.6666667  0.2033657  )
        23           Sb  tau(  23) = (  0.6666667  0.3333334  0.7966343  )
        24           Sb  tau(  24) = (  0.0000000  0.0000000  0.5367183  )
        25           Te  tau(  25) = (  0.3333334  0.6666667  0.0615795  )
        26           Te  tau(  26) = (  0.6666667  0.3333333  0.9384206  )
        27           Te  tau(  27) = (  0.0000000  0.0000000  0.3949197  )
        28           Te  tau(  28) = (  0.3333333  0.6666667  0.2717356  )
        29           Te  tau(  29) = (  0.6666667  0.3333334  0.7282644  )
        30           Te  tau(  30) = (  0.0000000  0.0000000  0.6050802  )
        31           Te  tau(  31) = (  0.0000000  0.0000000  0.1060035  )
        32           Te  tau(  32) = (  0.0000000  0.0000000  0.8939966  )
        33           Te  tau(  33) = (  0.6666667  0.3333334  0.4393461  )
        34           Te  tau(  34) = (  0.6666667  0.3333334  0.2273256  )
        35           Te  tau(  35) = (  0.3333334  0.6666667  0.7726744  )
        36           Te  tau(  36) = (  0.3333334  0.6666667  0.5606539  )
        37           Te  tau(  37) = (  0.6666667  0.3333334  0.1504722  )
        38           Te  tau(  38) = (  0.3333333  0.6666667  0.8495277  )
        39           Te  tau(  39) = (  0.3333334  0.6666667  0.4837966  )
        40           Te  tau(  40) = (  0.0000000  0.0000000  0.1828364  )
        41           Te  tau(  41) = (  0.0000000  0.0000000  0.8171636  )
        42           Te  tau(  42) = (  0.6666667  0.3333333  0.5162034  )

     number of k points=   201  Marzari-Vanderbilt smearing, width (Ry)=  0.0050
                       cart. coord. in units 2pi/alat
        k(    1) = (   0.3278956   0.5679318   0.0000000), wk =   0.0049751
        k(    2) = (   0.3246166   0.5622524   0.0000000), wk =   0.0049751
        k(    3) = (   0.3213376   0.5565731   0.0000000), wk =   0.0049751
        k(    4) = (   0.3180587   0.5508938   0.0000000), wk =   0.0049751
        k(    5) = (   0.3147797   0.5452145   0.0000000), wk =   0.0049751
        k(    6) = (   0.3115008   0.5395352   0.0000000), wk =   0.0049751
        k(    7) = (   0.3082218   0.5338558   0.0000000), wk =   0.0049751
        k(    8) = (   0.3049429   0.5281765   0.0000000), wk =   0.0049751
        k(    9) = (   0.3016639   0.5224972   0.0000000), wk =   0.0049751
        k(   10) = (   0.2983850   0.5168179   0.0000000), wk =   0.0049751
        k(   11) = (   0.2951060   0.5111386   0.0000000), wk =   0.0049751
        k(   12) = (   0.2918270   0.5054593   0.0000000), wk =   0.0049751
        k(   13) = (   0.2885481   0.4997799   0.0000000), wk =   0.0049751
        k(   14) = (   0.2852691   0.4941006   0.0000000), wk =   0.0049751
        k(   15) = (   0.2819902   0.4884213   0.0000000), wk =   0.0049751
        k(   16) = (   0.2787112   0.4827420   0.0000000), wk =   0.0049751
        k(   17) = (   0.2754323   0.4770627   0.0000000), wk =   0.0049751
        k(   18) = (   0.2721533   0.4713834   0.0000000), wk =   0.0049751
        k(   19) = (   0.2688744   0.4657040   0.0000000), wk =   0.0049751
        k(   20) = (   0.2655954   0.4600247   0.0000000), wk =   0.0049751
        k(   21) = (   0.2623164   0.4543454   0.0000000), wk =   0.0049751
        k(   22) = (   0.2590375   0.4486661   0.0000000), wk =   0.0049751
        k(   23) = (   0.2557585   0.4429868   0.0000000), wk =   0.0049751
        k(   24) = (   0.2524796   0.4373075   0.0000000), wk =   0.0049751
        k(   25) = (   0.2492006   0.4316281   0.0000000), wk =   0.0049751
        k(   26) = (   0.2459217   0.4259488   0.0000000), wk =   0.0049751
        k(   27) = (   0.2426427   0.4202695   0.0000000), wk =   0.0049751
        k(   28) = (   0.2393638   0.4145902   0.0000000), wk =   0.0049751
        k(   29) = (   0.2360848   0.4089109   0.0000000), wk =   0.0049751
        k(   30) = (   0.2328058   0.4032315   0.0000000), wk =   0.0049751
        k(   31) = (   0.2295269   0.3975522   0.0000000), wk =   0.0049751
        k(   32) = (   0.2262479   0.3918729   0.0000000), wk =   0.0049751
        k(   33) = (   0.2229690   0.3861936   0.0000000), wk =   0.0049751
        k(   34) = (   0.2196900   0.3805143   0.0000000), wk =   0.0049751
        k(   35) = (   0.2164111   0.3748350   0.0000000), wk =   0.0049751
        k(   36) = (   0.2131321   0.3691556   0.0000000), wk =   0.0049751
        k(   37) = (   0.2098532   0.3634763   0.0000000), wk =   0.0049751
        k(   38) = (   0.2065742   0.3577970   0.0000000), wk =   0.0049751
        k(   39) = (   0.2032952   0.3521177   0.0000000), wk =   0.0049751
        k(   40) = (   0.2000163   0.3464384   0.0000000), wk =   0.0049751
        k(   41) = (   0.1967373   0.3407591   0.0000000), wk =   0.0049751
        k(   42) = (   0.1934584   0.3350797   0.0000000), wk =   0.0049751
        k(   43) = (   0.1901794   0.3294004   0.0000000), wk =   0.0049751
        k(   44) = (   0.1869005   0.3237211   0.0000000), wk =   0.0049751
        k(   45) = (   0.1836215   0.3180418   0.0000000), wk =   0.0049751
        k(   46) = (   0.1803426   0.3123625   0.0000000), wk =   0.0049751
        k(   47) = (   0.1770636   0.3066831   0.0000000), wk =   0.0049751
        k(   48) = (   0.1737846   0.3010038   0.0000000), wk =   0.0049751
        k(   49) = (   0.1705057   0.2953245   0.0000000), wk =   0.0049751
        k(   50) = (   0.1672267   0.2896452   0.0000000), wk =   0.0049751
        k(   51) = (   0.1639478   0.2839659   0.0000000), wk =   0.0049751
        k(   52) = (   0.1606688   0.2782866   0.0000000), wk =   0.0049751
        k(   53) = (   0.1573899   0.2726072   0.0000000), wk =   0.0049751
        k(   54) = (   0.1541109   0.2669279   0.0000000), wk =   0.0049751
        k(   55) = (   0.1508320   0.2612486   0.0000000), wk =   0.0049751
        k(   56) = (   0.1475530   0.2555693   0.0000000), wk =   0.0049751
        k(   57) = (   0.1442740   0.2498900   0.0000000), wk =   0.0049751
        k(   58) = (   0.1409951   0.2442107   0.0000000), wk =   0.0049751
        k(   59) = (   0.1377161   0.2385313   0.0000000), wk =   0.0049751
        k(   60) = (   0.1344372   0.2328520   0.0000000), wk =   0.0049751
        k(   61) = (   0.1311582   0.2271727   0.0000000), wk =   0.0049751
        k(   62) = (   0.1278793   0.2214934   0.0000000), wk =   0.0049751
        k(   63) = (   0.1246003   0.2158141   0.0000000), wk =   0.0049751
        k(   64) = (   0.1213214   0.2101347   0.0000000), wk =   0.0049751
        k(   65) = (   0.1180424   0.2044554   0.0000000), wk =   0.0049751
        k(   66) = (   0.1147634   0.1987761   0.0000000), wk =   0.0049751
        k(   67) = (   0.1114845   0.1930968   0.0000000), wk =   0.0049751
        k(   68) = (   0.1082055   0.1874175   0.0000000), wk =   0.0049751
        k(   69) = (   0.1049266   0.1817382   0.0000000), wk =   0.0049751
        k(   70) = (   0.1016476   0.1760588   0.0000000), wk =   0.0049751
        k(   71) = (   0.0983687   0.1703795   0.0000000), wk =   0.0049751
        k(   72) = (   0.0950897   0.1647002   0.0000000), wk =   0.0049751
        k(   73) = (   0.0918108   0.1590209   0.0000000), wk =   0.0049751
        k(   74) = (   0.0885318   0.1533416   0.0000000), wk =   0.0049751
        k(   75) = (   0.0852528   0.1476623   0.0000000), wk =   0.0049751
        k(   76) = (   0.0819739   0.1419829   0.0000000), wk =   0.0049751
        k(   77) = (   0.0786949   0.1363036   0.0000000), wk =   0.0049751
        k(   78) = (   0.0754160   0.1306243   0.0000000), wk =   0.0049751
        k(   79) = (   0.0721370   0.1249450   0.0000000), wk =   0.0049751
        k(   80) = (   0.0688581   0.1192657   0.0000000), wk =   0.0049751
        k(   81) = (   0.0655791   0.1135864   0.0000000), wk =   0.0049751
        k(   82) = (   0.0623002   0.1079070   0.0000000), wk =   0.0049751
        k(   83) = (   0.0590212   0.1022277   0.0000000), wk =   0.0049751
        k(   84) = (   0.0557422   0.0965484   0.0000000), wk =   0.0049751
        k(   85) = (   0.0524633   0.0908691   0.0000000), wk =   0.0049751
        k(   86) = (   0.0491843   0.0851898   0.0000000), wk =   0.0049751
        k(   87) = (   0.0459054   0.0795104   0.0000000), wk =   0.0049751
        k(   88) = (   0.0426264   0.0738311   0.0000000), wk =   0.0049751
        k(   89) = (   0.0393475   0.0681518   0.0000000), wk =   0.0049751
        k(   90) = (   0.0360685   0.0624725   0.0000000), wk =   0.0049751
        k(   91) = (   0.0327896   0.0567932   0.0000000), wk =   0.0049751
        k(   92) = (   0.0295106   0.0511139   0.0000000), wk =   0.0049751
        k(   93) = (   0.0262316   0.0454345   0.0000000), wk =   0.0049751
        k(   94) = (   0.0229527   0.0397552   0.0000000), wk =   0.0049751
        k(   95) = (   0.0196737   0.0340759   0.0000000), wk =   0.0049751
        k(   96) = (   0.0163948   0.0283966   0.0000000), wk =   0.0049751
        k(   97) = (   0.0131158   0.0227173   0.0000000), wk =   0.0049751
        k(   98) = (   0.0098369   0.0170380   0.0000000), wk =   0.0049751
        k(   99) = (   0.0065579   0.0113586   0.0000000), wk =   0.0049751
        k(  100) = (   0.0032790   0.0056793   0.0000000), wk =   0.0049751
        k(  101) = (   0.0000000   0.0000000   0.0000000), wk =   0.0049751
        k(  102) = (   0.0049184   0.0028397   0.0000000), wk =   0.0049751
        k(  103) = (   0.0098369   0.0056793   0.0000000), wk =   0.0049751
        k(  104) = (   0.0147553   0.0085190   0.0000000), wk =   0.0049751
        k(  105) = (   0.0196737   0.0113586   0.0000000), wk =   0.0049751
        k(  106) = (   0.0245922   0.0141983   0.0000000), wk =   0.0049751
        k(  107) = (   0.0295106   0.0170380   0.0000000), wk =   0.0049751
        k(  108) = (   0.0344290   0.0198776   0.0000000), wk =   0.0049751
        k(  109) = (   0.0393475   0.0227173   0.0000000), wk =   0.0049751
        k(  110) = (   0.0442659   0.0255569   0.0000000), wk =   0.0049751
        k(  111) = (   0.0491843   0.0283966   0.0000000), wk =   0.0049751
        k(  112) = (   0.0541028   0.0312362   0.0000000), wk =   0.0049751
        k(  113) = (   0.0590212   0.0340759   0.0000000), wk =   0.0049751
        k(  114) = (   0.0639396   0.0369156   0.0000000), wk =   0.0049751
        k(  115) = (   0.0688581   0.0397552   0.0000000), wk =   0.0049751
        k(  116) = (   0.0737765   0.0425949   0.0000000), wk =   0.0049751
        k(  117) = (   0.0786949   0.0454345   0.0000000), wk =   0.0049751
        k(  118) = (   0.0836134   0.0482742   0.0000000), wk =   0.0049751
        k(  119) = (   0.0885318   0.0511139   0.0000000), wk =   0.0049751
        k(  120) = (   0.0934502   0.0539535   0.0000000), wk =   0.0049751
        k(  121) = (   0.0983687   0.0567932   0.0000000), wk =   0.0049751
        k(  122) = (   0.1032871   0.0596328   0.0000000), wk =   0.0049751
        k(  123) = (   0.1082055   0.0624725   0.0000000), wk =   0.0049751
        k(  124) = (   0.1131240   0.0653122   0.0000000), wk =   0.0049751
        k(  125) = (   0.1180424   0.0681518   0.0000000), wk =   0.0049751
        k(  126) = (   0.1229608   0.0709915   0.0000000), wk =   0.0049751
        k(  127) = (   0.1278793   0.0738311   0.0000000), wk =   0.0049751
        k(  128) = (   0.1327977   0.0766708   0.0000000), wk =   0.0049751
        k(  129) = (   0.1377161   0.0795104   0.0000000), wk =   0.0049751
        k(  130) = (   0.1426346   0.0823501   0.0000000), wk =   0.0049751
        k(  131) = (   0.1475530   0.0851898   0.0000000), wk =   0.0049751
        k(  132) = (   0.1524714   0.0880294   0.0000000), wk =   0.0049751
        k(  133) = (   0.1573899   0.0908691   0.0000000), wk =   0.0049751
        k(  134) = (   0.1623083   0.0937087   0.0000000), wk =   0.0049751
        k(  135) = (   0.1672267   0.0965484   0.0000000), wk =   0.0049751
        k(  136) = (   0.1721452   0.0993881   0.0000000), wk =   0.0049751
        k(  137) = (   0.1770636   0.1022277   0.0000000), wk =   0.0049751
        k(  138) = (   0.1819820   0.1050674   0.0000000), wk =   0.0049751
        k(  139) = (   0.1869005   0.1079070   0.0000000), wk =   0.0049751
        k(  140) = (   0.1918189   0.1107467   0.0000000), wk =   0.0049751
        k(  141) = (   0.1967373   0.1135864   0.0000000), wk =   0.0049751
        k(  142) = (   0.2016558   0.1164260   0.0000000), wk =   0.0049751
        k(  143) = (   0.2065742   0.1192657   0.0000000), wk =   0.0049751
        k(  144) = (   0.2114926   0.1221053   0.0000000), wk =   0.0049751
        k(  145) = (   0.2164111   0.1249450   0.0000000), wk =   0.0049751
        k(  146) = (   0.2213295   0.1277846   0.0000000), wk =   0.0049751
        k(  147) = (   0.2262479   0.1306243   0.0000000), wk =   0.0049751
        k(  148) = (   0.2311664   0.1334640   0.0000000), wk =   0.0049751
        k(  149) = (   0.2360848   0.1363036   0.0000000), wk =   0.0049751
        k(  150) = (   0.2410032   0.1391433   0.0000000), wk =   0.0049751
        k(  151) = (   0.2459217   0.1419829   0.0000000), wk =   0.0049751
        k(  152) = (   0.2508401   0.1448226   0.0000000), wk =   0.0049751
        k(  153) = (   0.2557585   0.1476623   0.0000000), wk =   0.0049751
        k(  154) = (   0.2606770   0.1505019   0.0000000), wk =   0.0049751
        k(  155) = (   0.2655954   0.1533416   0.0000000), wk =   0.0049751
        k(  156) = (   0.2705138   0.1561812   0.0000000), wk =   0.0049751
        k(  157) = (   0.2754323   0.1590209   0.0000000), wk =   0.0049751
        k(  158) = (   0.2803507   0.1618606   0.0000000), wk =   0.0049751
        k(  159) = (   0.2852691   0.1647002   0.0000000), wk =   0.0049751
        k(  160) = (   0.2901876   0.1675399   0.0000000), wk =   0.0049751
        k(  161) = (   0.2951060   0.1703795   0.0000000), wk =   0.0049751
        k(  162) = (   0.3000244   0.1732192   0.0000000), wk =   0.0049751
        k(  163) = (   0.3049429   0.1760588   0.0000000), wk =   0.0049751
        k(  164) = (   0.3098613   0.1788985   0.0000000), wk =   0.0049751
        k(  165) = (   0.3147797   0.1817382   0.0000000), wk =   0.0049751
        k(  166) = (   0.3196982   0.1845778   0.0000000), wk =   0.0049751
        k(  167) = (   0.3246166   0.1874175   0.0000000), wk =   0.0049751
        k(  168) = (   0.3295350   0.1902571   0.0000000), wk =   0.0049751
        k(  169) = (   0.3344535   0.1930968   0.0000000), wk =   0.0049751
        k(  170) = (   0.3393719   0.1959365   0.0000000), wk =   0.0049751
        k(  171) = (   0.3442903   0.1987761   0.0000000), wk =   0.0049751
        k(  172) = (   0.3492088   0.2016158   0.0000000), wk =   0.0049751
        k(  173) = (   0.3541272   0.2044554   0.0000000), wk =   0.0049751
        k(  174) = (   0.3590456   0.2072951   0.0000000), wk =   0.0049751
        k(  175) = (   0.3639641   0.2101348   0.0000000), wk =   0.0049751
        k(  176) = (   0.3688825   0.2129744   0.0000000), wk =   0.0049751
        k(  177) = (   0.3738009   0.2158141   0.0000000), wk =   0.0049751
        k(  178) = (   0.3787194   0.2186537   0.0000000), wk =   0.0049751
        k(  179) = (   0.3836378   0.2214934   0.0000000), wk =   0.0049751
        k(  180) = (   0.3885562   0.2243330   0.0000000), wk =   0.0049751
        k(  181) = (   0.3934747   0.2271727   0.0000000), wk =   0.0049751
        k(  182) = (   0.3983931   0.2300124   0.0000000), wk =   0.0049751
        k(  183) = (   0.4033115   0.2328520   0.0000000), wk =   0.0049751
        k(  184) = (   0.4082300   0.2356917   0.0000000), wk =   0.0049751
        k(  185) = (   0.4131484   0.2385313   0.0000000), wk =   0.0049751
        k(  186) = (   0.4180668   0.2413710   0.0000000), wk =   0.0049751
        k(  187) = (   0.4229853   0.2442107   0.0000000), wk =   0.0049751
        k(  188) = (   0.4279037   0.2470503   0.0000000), wk =   0.0049751
        k(  189) = (   0.4328221   0.2498900   0.0000000), wk =   0.0049751
        k(  190) = (   0.4377406   0.2527296   0.0000000), wk =   0.0049751
        k(  191) = (   0.4426590   0.2555693   0.0000000), wk =   0.0049751
        k(  192) = (   0.4475774   0.2584090   0.0000000), wk =   0.0049751
        k(  193) = (   0.4524959   0.2612486   0.0000000), wk =   0.0049751
        k(  194) = (   0.4574143   0.2640883   0.0000000), wk =   0.0049751
        k(  195) = (   0.4623327   0.2669279   0.0000000), wk =   0.0049751
        k(  196) = (   0.4672512   0.2697676   0.0000000), wk =   0.0049751
        k(  197) = (   0.4721696   0.2726072   0.0000000), wk =   0.0049751
        k(  198) = (   0.4770880   0.2754469   0.0000000), wk =   0.0049751
        k(  199) = (   0.4820065   0.2782866   0.0000000), wk =   0.0049751
        k(  200) = (   0.4869249   0.2811262   0.0000000), wk =   0.0049751
        k(  201) = (   0.4918433   0.2839659   0.0000000), wk =   0.0049751

                       cryst. coord.
        k(    1) = (   0.3333333   0.3333333   0.0000000), wk =   0.0049751
        k(    2) = (   0.3300000   0.3300000   0.0000000), wk =   0.0049751
        k(    3) = (   0.3266667   0.3266667   0.0000000), wk =   0.0049751
        k(    4) = (   0.3233333   0.3233333   0.0000000), wk =   0.0049751
        k(    5) = (   0.3200000   0.3200000   0.0000000), wk =   0.0049751
        k(    6) = (   0.3166667   0.3166667   0.0000000), wk =   0.0049751
        k(    7) = (   0.3133333   0.3133333   0.0000000), wk =   0.0049751
        k(    8) = (   0.3100000   0.3100000   0.0000000), wk =   0.0049751
        k(    9) = (   0.3066667   0.3066667   0.0000000), wk =   0.0049751
        k(   10) = (   0.3033333   0.3033333   0.0000000), wk =   0.0049751
        k(   11) = (   0.3000000   0.3000000   0.0000000), wk =   0.0049751
        k(   12) = (   0.2966667   0.2966667   0.0000000), wk =   0.0049751
        k(   13) = (   0.2933333   0.2933333   0.0000000), wk =   0.0049751
        k(   14) = (   0.2900000   0.2900000   0.0000000), wk =   0.0049751
        k(   15) = (   0.2866667   0.2866667   0.0000000), wk =   0.0049751
        k(   16) = (   0.2833333   0.2833333   0.0000000), wk =   0.0049751
        k(   17) = (   0.2800000   0.2800000   0.0000000), wk =   0.0049751
        k(   18) = (   0.2766667   0.2766667   0.0000000), wk =   0.0049751
        k(   19) = (   0.2733333   0.2733333   0.0000000), wk =   0.0049751
        k(   20) = (   0.2700000   0.2700000   0.0000000), wk =   0.0049751
        k(   21) = (   0.2666667   0.2666667   0.0000000), wk =   0.0049751
        k(   22) = (   0.2633333   0.2633333   0.0000000), wk =   0.0049751
        k(   23) = (   0.2600000   0.2600000   0.0000000), wk =   0.0049751
        k(   24) = (   0.2566667   0.2566667   0.0000000), wk =   0.0049751
        k(   25) = (   0.2533333   0.2533333   0.0000000), wk =   0.0049751
        k(   26) = (   0.2500000   0.2500000   0.0000000), wk =   0.0049751
        k(   27) = (   0.2466667   0.2466667   0.0000000), wk =   0.0049751
        k(   28) = (   0.2433333   0.2433333   0.0000000), wk =   0.0049751
        k(   29) = (   0.2400000   0.2400000   0.0000000), wk =   0.0049751
        k(   30) = (   0.2366667   0.2366667   0.0000000), wk =   0.0049751
        k(   31) = (   0.2333333   0.2333333   0.0000000), wk =   0.0049751
        k(   32) = (   0.2300000   0.2300000   0.0000000), wk =   0.0049751
        k(   33) = (   0.2266667   0.2266667   0.0000000), wk =   0.0049751
        k(   34) = (   0.2233333   0.2233333   0.0000000), wk =   0.0049751
        k(   35) = (   0.2200000   0.2200000   0.0000000), wk =   0.0049751
        k(   36) = (   0.2166667   0.2166667   0.0000000), wk =   0.0049751
        k(   37) = (   0.2133333   0.2133333   0.0000000), wk =   0.0049751
        k(   38) = (   0.2100000   0.2100000   0.0000000), wk =   0.0049751
        k(   39) = (   0.2066667   0.2066667   0.0000000), wk =   0.0049751
        k(   40) = (   0.2033333   0.2033333   0.0000000), wk =   0.0049751
        k(   41) = (   0.2000000   0.2000000   0.0000000), wk =   0.0049751
        k(   42) = (   0.1966667   0.1966667   0.0000000), wk =   0.0049751
        k(   43) = (   0.1933333   0.1933333   0.0000000), wk =   0.0049751
        k(   44) = (   0.1900000   0.1900000   0.0000000), wk =   0.0049751
        k(   45) = (   0.1866667   0.1866667   0.0000000), wk =   0.0049751
        k(   46) = (   0.1833333   0.1833333   0.0000000), wk =   0.0049751
        k(   47) = (   0.1800000   0.1800000   0.0000000), wk =   0.0049751
        k(   48) = (   0.1766667   0.1766667   0.0000000), wk =   0.0049751
        k(   49) = (   0.1733333   0.1733333   0.0000000), wk =   0.0049751
        k(   50) = (   0.1700000   0.1700000   0.0000000), wk =   0.0049751
        k(   51) = (   0.1666667   0.1666667   0.0000000), wk =   0.0049751
        k(   52) = (   0.1633333   0.1633333   0.0000000), wk =   0.0049751
        k(   53) = (   0.1600000   0.1600000   0.0000000), wk =   0.0049751
        k(   54) = (   0.1566667   0.1566667   0.0000000), wk =   0.0049751
        k(   55) = (   0.1533333   0.1533333   0.0000000), wk =   0.0049751
        k(   56) = (   0.1500000   0.1500000   0.0000000), wk =   0.0049751
        k(   57) = (   0.1466667   0.1466667   0.0000000), wk =   0.0049751
        k(   58) = (   0.1433333   0.1433333   0.0000000), wk =   0.0049751
        k(   59) = (   0.1400000   0.1400000   0.0000000), wk =   0.0049751
        k(   60) = (   0.1366667   0.1366667   0.0000000), wk =   0.0049751
        k(   61) = (   0.1333333   0.1333333   0.0000000), wk =   0.0049751
        k(   62) = (   0.1300000   0.1300000   0.0000000), wk =   0.0049751
        k(   63) = (   0.1266667   0.1266667   0.0000000), wk =   0.0049751
        k(   64) = (   0.1233333   0.1233333   0.0000000), wk =   0.0049751
        k(   65) = (   0.1200000   0.1200000   0.0000000), wk =   0.0049751
        k(   66) = (   0.1166667   0.1166667   0.0000000), wk =   0.0049751
        k(   67) = (   0.1133333   0.1133333   0.0000000), wk =   0.0049751
        k(   68) = (   0.1100000   0.1100000   0.0000000), wk =   0.0049751
        k(   69) = (   0.1066667   0.1066667   0.0000000), wk =   0.0049751
        k(   70) = (   0.1033333   0.1033333   0.0000000), wk =   0.0049751
        k(   71) = (   0.1000000   0.1000000   0.0000000), wk =   0.0049751
        k(   72) = (   0.0966667   0.0966667   0.0000000), wk =   0.0049751
        k(   73) = (   0.0933333   0.0933333   0.0000000), wk =   0.0049751
        k(   74) = (   0.0900000   0.0900000   0.0000000), wk =   0.0049751
        k(   75) = (   0.0866667   0.0866667   0.0000000), wk =   0.0049751
        k(   76) = (   0.0833333   0.0833333   0.0000000), wk =   0.0049751
        k(   77) = (   0.0800000   0.0800000   0.0000000), wk =   0.0049751
        k(   78) = (   0.0766667   0.0766667   0.0000000), wk =   0.0049751
        k(   79) = (   0.0733333   0.0733333   0.0000000), wk =   0.0049751
        k(   80) = (   0.0700000   0.0700000   0.0000000), wk =   0.0049751
        k(   81) = (   0.0666667   0.0666667   0.0000000), wk =   0.0049751
        k(   82) = (   0.0633333   0.0633333   0.0000000), wk =   0.0049751
        k(   83) = (   0.0600000   0.0600000   0.0000000), wk =   0.0049751
        k(   84) = (   0.0566667   0.0566667   0.0000000), wk =   0.0049751
        k(   85) = (   0.0533333   0.0533333   0.0000000), wk =   0.0049751
        k(   86) = (   0.0500000   0.0500000   0.0000000), wk =   0.0049751
        k(   87) = (   0.0466667   0.0466667   0.0000000), wk =   0.0049751
        k(   88) = (   0.0433333   0.0433333   0.0000000), wk =   0.0049751
        k(   89) = (   0.0400000   0.0400000   0.0000000), wk =   0.0049751
        k(   90) = (   0.0366667   0.0366667   0.0000000), wk =   0.0049751
        k(   91) = (   0.0333333   0.0333333   0.0000000), wk =   0.0049751
        k(   92) = (   0.0300000   0.0300000   0.0000000), wk =   0.0049751
        k(   93) = (   0.0266667   0.0266667   0.0000000), wk =   0.0049751
        k(   94) = (   0.0233333   0.0233333   0.0000000), wk =   0.0049751
        k(   95) = (   0.0200000   0.0200000   0.0000000), wk =   0.0049751
        k(   96) = (   0.0166667   0.0166667   0.0000000), wk =   0.0049751
        k(   97) = (   0.0133333   0.0133333   0.0000000), wk =   0.0049751
        k(   98) = (   0.0100000   0.0100000   0.0000000), wk =   0.0049751
        k(   99) = (   0.0066667   0.0066667   0.0000000), wk =   0.0049751
        k(  100) = (   0.0033333   0.0033333   0.0000000), wk =   0.0049751
        k(  101) = (   0.0000000   0.0000000   0.0000000), wk =   0.0049751
        k(  102) = (   0.0050000  -0.0000000   0.0000000), wk =   0.0049751
        k(  103) = (   0.0100000  -0.0000000   0.0000000), wk =   0.0049751
        k(  104) = (   0.0150000  -0.0000000   0.0000000), wk =   0.0049751
        k(  105) = (   0.0200000  -0.0000000   0.0000000), wk =   0.0049751
        k(  106) = (   0.0250000  -0.0000000   0.0000000), wk =   0.0049751
        k(  107) = (   0.0300000  -0.0000000   0.0000000), wk =   0.0049751
        k(  108) = (   0.0350000  -0.0000000   0.0000000), wk =   0.0049751
        k(  109) = (   0.0400000  -0.0000000   0.0000000), wk =   0.0049751
        k(  110) = (   0.0450000  -0.0000000   0.0000000), wk =   0.0049751
        k(  111) = (   0.0500000  -0.0000000   0.0000000), wk =   0.0049751
        k(  112) = (   0.0550000  -0.0000000   0.0000000), wk =   0.0049751
        k(  113) = (   0.0600000  -0.0000000   0.0000000), wk =   0.0049751
        k(  114) = (   0.0650000   0.0000000   0.0000000), wk =   0.0049751
        k(  115) = (   0.0700000  -0.0000000   0.0000000), wk =   0.0049751
        k(  116) = (   0.0750000  -0.0000000   0.0000000), wk =   0.0049751
        k(  117) = (   0.0800000  -0.0000000   0.0000000), wk =   0.0049751
        k(  118) = (   0.0850000  -0.0000000   0.0000000), wk =   0.0049751
        k(  119) = (   0.0900000  -0.0000000   0.0000000), wk =   0.0049751
        k(  120) = (   0.0950000  -0.0000000   0.0000000), wk =   0.0049751
        k(  121) = (   0.1000000  -0.0000000   0.0000000), wk =   0.0049751
        k(  122) = (   0.1050000  -0.0000000   0.0000000), wk =   0.0049751
        k(  123) = (   0.1100000  -0.0000000   0.0000000), wk =   0.0049751
        k(  124) = (   0.1150000  -0.0000000   0.0000000), wk =   0.0049751
        k(  125) = (   0.1200000  -0.0000000   0.0000000), wk =   0.0049751
        k(  126) = (   0.1250000  -0.0000000   0.0000000), wk =   0.0049751
        k(  127) = (   0.1300000   0.0000000   0.0000000), wk =   0.0049751
        k(  128) = (   0.1350000  -0.0000000   0.0000000), wk =   0.0049751
        k(  129) = (   0.1400000  -0.0000000   0.0000000), wk =   0.0049751
        k(  130) = (   0.1450000  -0.0000000   0.0000000), wk =   0.0049751
        k(  131) = (   0.1500000  -0.0000000   0.0000000), wk =   0.0049751
        k(  132) = (   0.1550000  -0.0000000   0.0000000), wk =   0.0049751
        k(  133) = (   0.1600000  -0.0000000   0.0000000), wk =   0.0049751
        k(  134) = (   0.1650000  -0.0000000   0.0000000), wk =   0.0049751
        k(  135) = (   0.1700000  -0.0000000   0.0000000), wk =   0.0049751
        k(  136) = (   0.1750000  -0.0000000   0.0000000), wk =   0.0049751
        k(  137) = (   0.1800000  -0.0000000   0.0000000), wk =   0.0049751
        k(  138) = (   0.1850000  -0.0000000   0.0000000), wk =   0.0049751
        k(  139) = (   0.1900000  -0.0000000   0.0000000), wk =   0.0049751
        k(  140) = (   0.1950000  -0.0000000   0.0000000), wk =   0.0049751
        k(  141) = (   0.2000000  -0.0000000   0.0000000), wk =   0.0049751
        k(  142) = (   0.2050000  -0.0000000   0.0000000), wk =   0.0049751
        k(  143) = (   0.2100000  -0.0000000   0.0000000), wk =   0.0049751
        k(  144) = (   0.2150000  -0.0000000   0.0000000), wk =   0.0049751
        k(  145) = (   0.2200000  -0.0000000   0.0000000), wk =   0.0049751
        k(  146) = (   0.2250000  -0.0000000   0.0000000), wk =   0.0049751
        k(  147) = (   0.2300000  -0.0000000   0.0000000), wk =   0.0049751
        k(  148) = (   0.2350000  -0.0000000   0.0000000), wk =   0.0049751
        k(  149) = (   0.2400000  -0.0000000   0.0000000), wk =   0.0049751
        k(  150) = (   0.2450000  -0.0000000   0.0000000), wk =   0.0049751
        k(  151) = (   0.2500000  -0.0000000   0.0000000), wk =   0.0049751
        k(  152) = (   0.2550000  -0.0000000   0.0000000), wk =   0.0049751
        k(  153) = (   0.2600000   0.0000000   0.0000000), wk =   0.0049751
        k(  154) = (   0.2650000  -0.0000000   0.0000000), wk =   0.0049751
        k(  155) = (   0.2700000  -0.0000000   0.0000000), wk =   0.0049751
        k(  156) = (   0.2750000   0.0000000   0.0000000), wk =   0.0049751
        k(  157) = (   0.2800000  -0.0000000   0.0000000), wk =   0.0049751
        k(  158) = (   0.2850000  -0.0000000   0.0000000), wk =   0.0049751
        k(  159) = (   0.2900000  -0.0000000   0.0000000), wk =   0.0049751
        k(  160) = (   0.2950000  -0.0000000   0.0000000), wk =   0.0049751
        k(  161) = (   0.3000000  -0.0000000   0.0000000), wk =   0.0049751
        k(  162) = (   0.3050000   0.0000000   0.0000000), wk =   0.0049751
        k(  163) = (   0.3100000  -0.0000000   0.0000000), wk =   0.0049751
        k(  164) = (   0.3150000  -0.0000000   0.0000000), wk =   0.0049751
        k(  165) = (   0.3200000  -0.0000000   0.0000000), wk =   0.0049751
        k(  166) = (   0.3250000  -0.0000000   0.0000000), wk =   0.0049751
        k(  167) = (   0.3300000  -0.0000000   0.0000000), wk =   0.0049751
        k(  168) = (   0.3350000  -0.0000000   0.0000000), wk =   0.0049751
        k(  169) = (   0.3400000  -0.0000000   0.0000000), wk =   0.0049751
        k(  170) = (   0.3450000  -0.0000000   0.0000000), wk =   0.0049751
        k(  171) = (   0.3500000  -0.0000000   0.0000000), wk =   0.0049751
        k(  172) = (   0.3550000  -0.0000000   0.0000000), wk =   0.0049751
        k(  173) = (   0.3600000  -0.0000000   0.0000000), wk =   0.0049751
        k(  174) = (   0.3650000  -0.0000000   0.0000000), wk =   0.0049751
        k(  175) = (   0.3700000  -0.0000000   0.0000000), wk =   0.0049751
        k(  176) = (   0.3750000  -0.0000000   0.0000000), wk =   0.0049751
        k(  177) = (   0.3800000  -0.0000000   0.0000000), wk =   0.0049751
        k(  178) = (   0.3850000  -0.0000000   0.0000000), wk =   0.0049751
        k(  179) = (   0.3900000  -0.0000000   0.0000000), wk =   0.0049751
        k(  180) = (   0.3950000  -0.0000000   0.0000000), wk =   0.0049751
        k(  181) = (   0.4000000  -0.0000000   0.0000000), wk =   0.0049751
        k(  182) = (   0.4050000  -0.0000000   0.0000000), wk =   0.0049751
        k(  183) = (   0.4100000  -0.0000000   0.0000000), wk =   0.0049751
        k(  184) = (   0.4150000  -0.0000000   0.0000000), wk =   0.0049751
        k(  185) = (   0.4200000  -0.0000000   0.0000000), wk =   0.0049751
        k(  186) = (   0.4250000  -0.0000000   0.0000000), wk =   0.0049751
        k(  187) = (   0.4300000  -0.0000000   0.0000000), wk =   0.0049751
        k(  188) = (   0.4350000  -0.0000000   0.0000000), wk =   0.0049751
        k(  189) = (   0.4400000  -0.0000000   0.0000000), wk =   0.0049751
        k(  190) = (   0.4450000  -0.0000000   0.0000000), wk =   0.0049751
        k(  191) = (   0.4500000  -0.0000000   0.0000000), wk =   0.0049751
        k(  192) = (   0.4550000  -0.0000000   0.0000000), wk =   0.0049751
        k(  193) = (   0.4600000  -0.0000000   0.0000000), wk =   0.0049751
        k(  194) = (   0.4650000  -0.0000000   0.0000000), wk =   0.0049751
        k(  195) = (   0.4700000  -0.0000000   0.0000000), wk =   0.0049751
        k(  196) = (   0.4750000  -0.0000000   0.0000000), wk =   0.0049751
        k(  197) = (   0.4800000  -0.0000000   0.0000000), wk =   0.0049751
        k(  198) = (   0.4850000  -0.0000000   0.0000000), wk =   0.0049751
        k(  199) = (   0.4900000  -0.0000000   0.0000000), wk =   0.0049751
        k(  200) = (   0.4950000  -0.0000000   0.0000000), wk =   0.0049751
        k(  201) = (   0.5000000  -0.0000000   0.0000000), wk =   0.0049751

     Dense  grid:   603605 G-vectors     FFT dimensions: (  45,  45, 800)

     Smooth grid:   431947 G-vectors     FFT dimensions: (  40,  40, 720)

     Dynamical RAM for                 wfc:      48.47 MB

     Dynamical RAM for     wfc (w. buffer):      48.47 MB

     Dynamical RAM for           str. fact:       1.02 MB

     Dynamical RAM for           local pot:       0.00 MB

     Dynamical RAM for          nlocal pot:      65.30 MB

     Dynamical RAM for                qrad:       6.65 MB

     Dynamical RAM for          rho,v,vnew:      14.49 MB

     Dynamical RAM for           G-vectors:       2.10 MB

     Dynamical RAM for          h,s,v(r/c):       3.21 MB

     Dynamical RAM for          <psi|beta>:      23.10 MB

     Dynamical RAM for                 psi:      96.95 MB

     Dynamical RAM for                hpsi:      96.95 MB

     Dynamical RAM for                spsi:      96.95 MB

     Dynamical RAM for      wfcinit/wfcrot:      79.14 MB

     Dynamical RAM for           addusdens:     324.81 MB

     Estimated static dynamical RAM per process >     145.15 MB

     Estimated max dynamical RAM per process >     469.95 MB

     Estimated total dynamical RAM >       8.26 GB

     Check: negative core charge=   -0.000011

     The potential is recalculated from file :
     ./temp/sb4te3.save/charge-density

     Starting wfcs are  516 randomized atomic wfcs +   14 random wfcs
     Checking if some PAW data can be deallocated... 
       PAW data deallocated on    9 nodes for type:  1
       PAW data deallocated on    9 nodes for type:  2

     Band Structure Calculation
     Davidson diagonalization with overlap

     Computing kpt #:     1  of   201
     c_bands:  8 eigenvalues not converged
     total cpu time spent up to now is      418.1 secs

     Computing kpt #:     2  of   201
     c_bands:  4 eigenvalues not converged
     total cpu time spent up to now is      833.4 secs

     Computing kpt #:     3  of   201
     c_bands:  2 eigenvalues not converged
     total cpu time spent up to now is     1250.0 secs

     Computing kpt #:     4  of   201
     c_bands:  2 eigenvalues not converged
     total cpu time spent up to now is     1660.5 secs

     Computing kpt #:     5  of   201
     c_bands:  2 eigenvalues not converged
     total cpu time spent up to now is     2077.3 secs

     Computing kpt #:     6  of   201
     c_bands:  2 eigenvalues not converged
     total cpu time spent up to now is     2489.6 secs

     Computing kpt #:     7  of   201
     c_bands:  5 eigenvalues not converged
     total cpu time spent up to now is     2916.5 secs

     Computing kpt #:     8  of   201
     c_bands:  3 eigenvalues not converged
     total cpu time spent up to now is     3336.6 secs

     Computing kpt #:     9  of   201
     c_bands:  2 eigenvalues not converged
     total cpu time spent up to now is     3766.4 secs

     Computing kpt #:    10  of   201
     c_bands:  2 eigenvalues not converged
     total cpu time spent up to now is     4189.3 secs

     Computing kpt #:    11  of   201
     c_bands:  2 eigenvalues not converged
     total cpu time spent up to now is     4620.6 secs

     Computing kpt #:    12  of   201
     c_bands:  2 eigenvalues not converged
     total cpu time spent up to now is     5047.6 secs

     Computing kpt #:    13  of   201
     c_bands:  3 eigenvalues not converged
     total cpu time spent up to now is     5485.8 secs

     Computing kpt #:    14  of   201
     c_bands:  4 eigenvalues not converged
     total cpu time spent up to now is     5920.0 secs

     Computing kpt #:    15  of   201
     c_bands:  4 eigenvalues not converged
     total cpu time spent up to now is     6359.5 secs

     Computing kpt #:    16  of   201
     c_bands:  4 eigenvalues not converged
     total cpu time spent up to now is     6791.7 secs

     Computing kpt #:    17  of   201
     c_bands:  3 eigenvalues not converged
     total cpu time spent up to now is     7232.0 secs

     Computing kpt #:    18  of   201
     c_bands:  2 eigenvalues not converged
     total cpu time spent up to now is     7668.8 secs

     Computing kpt #:    19  of   201
     c_bands:  2 eigenvalues not converged
     total cpu time spent up to now is     8111.7 secs

     Computing kpt #:    20  of   201
     c_bands:  2 eigenvalues not converged
     total cpu time spent up to now is     8548.6 secs

     Computing kpt #:    21  of   201
     c_bands:  2 eigenvalues not converged
     total cpu time spent up to now is     8991.3 secs

     Computing kpt #:    22  of   201
     c_bands:  2 eigenvalues not converged
     total cpu time spent up to now is     9429.6 secs

     Computing kpt #:    23  of   201
     c_bands:  2 eigenvalues not converged
     total cpu time spent up to now is     9872.8 secs

     Computing kpt #:    24  of   201
     c_bands:  2 eigenvalues not converged
     total cpu time spent up to now is    10310.1 secs

     Computing kpt #:    25  of   201
     c_bands:  2 eigenvalues not converged
     total cpu time spent up to now is    10753.0 secs

     Computing kpt #:    26  of   201
     c_bands:  1 eigenvalues not converged
     total cpu time spent up to now is    11186.5 secs

     Computing kpt #:    27  of   201
     c_bands:  2 eigenvalues not converged
     total cpu time spent up to now is    11623.4 secs

     Computing kpt #:    28  of   201
     c_bands:  2 eigenvalues not converged
     total cpu time spent up to now is    12061.0 secs

     Computing kpt #:    29  of   201
     c_bands:  2 eigenvalues not converged
     total cpu time spent up to now is    12503.0 secs

     Computing kpt #:    30  of   201
     c_bands:  6 eigenvalues not converged
     total cpu time spent up to now is    12938.2 secs

     Computing kpt #:    31  of   201
     total cpu time spent up to now is    13357.0 secs

     Computing kpt #:    32  of   201
     c_bands:  2 eigenvalues not converged
     total cpu time spent up to now is    13793.8 secs

     Computing kpt #:    33  of   201
     total cpu time spent up to now is    14231.5 secs

     Computing kpt #:    34  of   201
     total cpu time spent up to now is    14646.1 secs

     Computing kpt #:    35  of   201
     total cpu time spent up to now is    15062.5 secs

     Computing kpt #:    36  of   201
     total cpu time spent up to now is    15474.2 secs

     Computing kpt #:    37  of   201
     total cpu time spent up to now is    15889.4 secs

     Computing kpt #:    38  of   201
     total cpu time spent up to now is    16293.7 secs

     Computing kpt #:    39  of   201
     total cpu time spent up to now is    16702.3 secs

     Computing kpt #:    40  of   201
     total cpu time spent up to now is    17109.3 secs

     Computing kpt #:    41  of   201
     total cpu time spent up to now is    17505.9 secs

     Computing kpt #:    42  of   201
     total cpu time spent up to now is    17905.4 secs

     Computing kpt #:    43  of   201
     total cpu time spent up to now is    18303.3 secs

     Computing kpt #:    44  of   201
     total cpu time spent up to now is    18702.3 secs

     Computing kpt #:    45  of   201
     total cpu time spent up to now is    19095.6 secs

     Computing kpt #:    46  of   201
     total cpu time spent up to now is    19479.8 secs

     Computing kpt #:    47  of   201
     total cpu time spent up to now is    19870.6 secs

     Computing kpt #:    48  of   201
     total cpu time spent up to now is    20254.2 secs

     Computing kpt #:    49  of   201
     total cpu time spent up to now is    20632.0 secs

     Computing kpt #:    50  of   201
     total cpu time spent up to now is    21014.2 secs

     Computing kpt #:    51  of   201
     total cpu time spent up to now is    21396.9 secs

     Computing kpt #:    52  of   201
     c_bands:  2 eigenvalues not converged
     total cpu time spent up to now is    21786.6 secs

     Computing kpt #:    53  of   201
     total cpu time spent up to now is    22136.5 secs

     Computing kpt #:    54  of   201
     total cpu time spent up to now is    22503.8 secs

     Computing kpt #:    55  of   201
     total cpu time spent up to now is    22853.1 secs

     Computing kpt #:    56  of   201
     c_bands:  2 eigenvalues not converged
     total cpu time spent up to now is    23236.9 secs

     Computing kpt #:    57  of   201
     c_bands:  1 eigenvalues not converged
     total cpu time spent up to now is    23627.7 secs

     Computing kpt #:    58  of   201
     total cpu time spent up to now is    23986.8 secs

     Computing kpt #:    59  of   201
     total cpu time spent up to now is    24346.6 secs

     Computing kpt #:    60  of   201
     total cpu time spent up to now is    24687.7 secs

     Computing kpt #:    61  of   201
     total cpu time spent up to now is    25013.4 secs

     Computing kpt #:    62  of   201
     total cpu time spent up to now is    25338.2 secs

     Computing kpt #:    63  of   201
     total cpu time spent up to now is    25659.8 secs

     Computing kpt #:    64  of   201
     total cpu time spent up to now is    25980.0 secs

     Computing kpt #:    65  of   201
     total cpu time spent up to now is    26301.7 secs

     Computing kpt #:    66  of   201
     total cpu time spent up to now is    26639.8 secs

     Computing kpt #:    67  of   201
     total cpu time spent up to now is    26979.1 secs

     Computing kpt #:    68  of   201
     total cpu time spent up to now is    27320.7 secs

     Computing kpt #:    69  of   201
     total cpu time spent up to now is    27662.1 secs

     Computing kpt #:    70  of   201
     total cpu time spent up to now is    27989.3 secs

     Computing kpt #:    71  of   201
     total cpu time spent up to now is    28316.3 secs

     Computing kpt #:    72  of   201
     total cpu time spent up to now is    28657.8 secs

     Computing kpt #:    73  of   201
     total cpu time spent up to now is    29001.1 secs

     Computing kpt #:    74  of   201
     total cpu time spent up to now is    29345.7 secs

     Computing kpt #:    75  of   201
     total cpu time spent up to now is    29694.3 secs

     Computing kpt #:    76  of   201
     total cpu time spent up to now is    30044.6 secs

     Computing kpt #:    77  of   201
     c_bands:  2 eigenvalues not converged
     total cpu time spent up to now is    30419.2 secs

     Computing kpt #:    78  of   201
     c_bands:  2 eigenvalues not converged
     total cpu time spent up to now is    30799.6 secs

     Computing kpt #:    79  of   201
     c_bands:  2 eigenvalues not converged
     total cpu time spent up to now is    31178.1 secs

     Computing kpt #:    80  of   201
     c_bands:  2 eigenvalues not converged
     total cpu time spent up to now is    31557.2 secs

     Computing kpt #:    81  of   201
     c_bands:  2 eigenvalues not converged
     total cpu time spent up to now is    31934.5 secs

     Computing kpt #:    82  of   201
     c_bands:  2 eigenvalues not converged
     total cpu time spent up to now is    32316.5 secs

     Computing kpt #:    83  of   201
     c_bands:  2 eigenvalues not converged
     total cpu time spent up to now is    32699.4 secs

     Computing kpt #:    84  of   201
     c_bands:  2 eigenvalues not converged
     total cpu time spent up to now is    33086.6 secs

     Computing kpt #:    85  of   201
     c_bands:  2 eigenvalues not converged
     total cpu time spent up to now is    33475.5 secs

     Computing kpt #:    86  of   201
     c_bands:  2 eigenvalues not converged
     total cpu time spent up to now is    33864.8 secs

     Computing kpt #:    87  of   201
     c_bands:  2 eigenvalues not converged
     total cpu time spent up to now is    34250.6 secs

     Computing kpt #:    88  of   201
     c_bands:  2 eigenvalues not converged
     total cpu time spent up to now is    34635.2 secs

     Computing kpt #:    89  of   201
     c_bands:  2 eigenvalues not converged
     total cpu time spent up to now is    35019.8 secs

     Computing kpt #:    90  of   201
     c_bands:  2 eigenvalues not converged
     total cpu time spent up to now is    35400.8 secs

     Computing kpt #:    91  of   201
     c_bands:  2 eigenvalues not converged
     total cpu time spent up to now is    35778.1 secs

     Computing kpt #:    92  of   201
     c_bands:  2 eigenvalues not converged
     total cpu time spent up to now is    36159.5 secs

     Computing kpt #:    93  of   201
     c_bands:  2 eigenvalues not converged
     total cpu time spent up to now is    36534.3 secs

     Computing kpt #:    94  of   201
     c_bands:  2 eigenvalues not converged
     total cpu time spent up to now is    36910.3 secs

     Computing kpt #:    95  of   201
     c_bands:  2 eigenvalues not converged
     total cpu time spent up to now is    37284.1 secs

     Computing kpt #:    96  of   201
     c_bands:  2 eigenvalues not converged
     total cpu time spent up to now is    37659.2 secs

     Computing kpt #:    97  of   201
     c_bands:  2 eigenvalues not converged
     total cpu time spent up to now is    38036.2 secs

     Computing kpt #:    98  of   201
     c_bands:  2 eigenvalues not converged
     total cpu time spent up to now is    38409.5 secs

     Computing kpt #:    99  of   201
     c_bands:  2 eigenvalues not converged
     total cpu time spent up to now is    38779.5 secs

     Computing kpt #:   100  of   201
     c_bands:  2 eigenvalues not converged
     total cpu time spent up to now is    39145.5 secs

     Computing kpt #:   101  of   201
     c_bands:  2 eigenvalues not converged
     total cpu time spent up to now is    39483.1 secs

     Computing kpt #:   102  of   201
     c_bands:  2 eigenvalues not converged
     total cpu time spent up to now is    39844.2 secs

     Computing kpt #:   103  of   201
     c_bands:  2 eigenvalues not converged
     total cpu time spent up to now is    40201.3 secs

     Computing kpt #:   104  of   201
     c_bands:  2 eigenvalues not converged
     total cpu time spent up to now is    40565.3 secs

     Computing kpt #:   105  of   201
     c_bands:  2 eigenvalues not converged
     total cpu time spent up to now is    40930.8 secs

     Computing kpt #:   106  of   201
     c_bands:  2 eigenvalues not converged
     total cpu time spent up to now is    41298.4 secs

     Computing kpt #:   107  of   201
     c_bands:  2 eigenvalues not converged
     total cpu time spent up to now is    41663.5 secs

     Computing kpt #:   108  of   201
     c_bands:  2 eigenvalues not converged
     total cpu time spent up to now is    42031.1 secs

     Computing kpt #:   109  of   201
     c_bands:  2 eigenvalues not converged
     total cpu time spent up to now is    42397.4 secs

     Computing kpt #:   110  of   201
     c_bands:  2 eigenvalues not converged
     total cpu time spent up to now is    42761.5 secs

     Computing kpt #:   111  of   201
     c_bands:  2 eigenvalues not converged
     total cpu time spent up to now is    43127.5 secs

     Computing kpt #:   112  of   201
     c_bands:  2 eigenvalues not converged
     total cpu time spent up to now is    43491.8 secs

     Computing kpt #:   113  of   201
     c_bands:  2 eigenvalues not converged
     total cpu time spent up to now is    43850.8 secs

     Computing kpt #:   114  of   201
     c_bands:  2 eigenvalues not converged
     total cpu time spent up to now is    44208.2 secs

     Computing kpt #:   115  of   201
     c_bands:  2 eigenvalues not converged
     total cpu time spent up to now is    44569.0 secs

     Computing kpt #:   116  of   201
     c_bands:  2 eigenvalues not converged
     total cpu time spent up to now is    44930.7 secs

     Computing kpt #:   117  of   201
     c_bands:  2 eigenvalues not converged
     total cpu time spent up to now is    45292.5 secs

     Computing kpt #:   118  of   201
     c_bands:  2 eigenvalues not converged
     total cpu time spent up to now is    45648.5 secs

     Computing kpt #:   119  of   201
     c_bands:  2 eigenvalues not converged
     total cpu time spent up to now is    46003.4 secs

     Computing kpt #:   120  of   201
     c_bands:  2 eigenvalues not converged
     total cpu time spent up to now is    46358.1 secs

     Computing kpt #:   121  of   201
     c_bands:  2 eigenvalues not converged
     total cpu time spent up to now is    46719.8 secs

     Computing kpt #:   122  of   201
     c_bands:  2 eigenvalues not converged
     total cpu time spent up to now is    47085.0 secs

     Computing kpt #:   123  of   201
     c_bands:  2 eigenvalues not converged
     total cpu time spent up to now is    47449.4 secs

     Computing kpt #:   124  of   201
     c_bands:  2 eigenvalues not converged
     total cpu time spent up to now is    47814.5 secs

     Computing kpt #:   125  of   201
     c_bands:  2 eigenvalues not converged
     total cpu time spent up to now is    48177.5 secs

     Computing kpt #:   126  of   201
     c_bands:  2 eigenvalues not converged
     total cpu time spent up to now is    48537.0 secs

     Computing kpt #:   127  of   201
     c_bands:  2 eigenvalues not converged
     total cpu time spent up to now is    48897.7 secs

     Computing kpt #:   128  of   201
     c_bands:  2 eigenvalues not converged
     total cpu time spent up to now is    49258.7 secs

     Computing kpt #:   129  of   201
     c_bands:  2 eigenvalues not converged
     total cpu time spent up to now is    49621.2 secs

     Computing kpt #:   130  of   201
     c_bands:  2 eigenvalues not converged
     total cpu time spent up to now is    49981.6 secs

     Computing kpt #:   131  of   201
     c_bands:  2 eigenvalues not converged
     total cpu time spent up to now is    50342.9 secs

     Computing kpt #:   132  of   201
     c_bands:  2 eigenvalues not converged
     total cpu time spent up to now is    50706.7 secs

     Computing kpt #:   133  of   201
     c_bands:  2 eigenvalues not converged
     total cpu time spent up to now is    51067.4 secs

     Computing kpt #:   134  of   201
     c_bands:  2 eigenvalues not converged
     total cpu time spent up to now is    51424.4 secs

     Computing kpt #:   135  of   201
     c_bands:  2 eigenvalues not converged
     total cpu time spent up to now is    51782.8 secs

     Computing kpt #:   136  of   201
     c_bands:  2 eigenvalues not converged
     total cpu time spent up to now is    52143.0 secs

     Computing kpt #:   137  of   201
     c_bands:  1 eigenvalues not converged
     total cpu time spent up to now is    52501.1 secs

     Computing kpt #:   138  of   201
     total cpu time spent up to now is    52857.8 secs

     Computing kpt #:   139  of   201
     total cpu time spent up to now is    53200.4 secs

     Computing kpt #:   140  of   201
     total cpu time spent up to now is    53537.6 secs

     Computing kpt #:   141  of   201
     total cpu time spent up to now is    53877.9 secs

     Computing kpt #:   142  of   201
     total cpu time spent up to now is    54215.6 secs

     Computing kpt #:   143  of   201
     total cpu time spent up to now is    54554.6 secs

     Computing kpt #:   144  of   201
     total cpu time spent up to now is    54893.0 secs

     Computing kpt #:   145  of   201
     total cpu time spent up to now is    55215.5 secs

     Computing kpt #:   146  of   201
     total cpu time spent up to now is    55538.9 secs

     Computing kpt #:   147  of   201
     total cpu time spent up to now is    55864.3 secs

     Computing kpt #:   148  of   201
     total cpu time spent up to now is    56192.1 secs

     Computing kpt #:   149  of   201
     total cpu time spent up to now is    56520.1 secs

     Computing kpt #:   150  of   201
     total cpu time spent up to now is    56847.9 secs

     Computing kpt #:   151  of   201
     total cpu time spent up to now is    57179.4 secs

     Computing kpt #:   152  of   201
     total cpu time spent up to now is    57512.1 secs

     Computing kpt #:   153  of   201
     total cpu time spent up to now is    57844.3 secs

     Computing kpt #:   154  of   201
     total cpu time spent up to now is    58179.0 secs

     Computing kpt #:   155  of   201
     total cpu time spent up to now is    58550.2 secs

     Computing kpt #:   156  of   201
     c_bands:  2 eigenvalues not converged
     total cpu time spent up to now is    58927.1 secs

     Computing kpt #:   157  of   201
     total cpu time spent up to now is    59302.8 secs

     Computing kpt #:   158  of   201
     total cpu time spent up to now is    59680.4 secs

     Computing kpt #:   159  of   201
     c_bands:  1 eigenvalues not converged
     total cpu time spent up to now is    60061.7 secs

     Computing kpt #:   160  of   201
     c_bands:  4 eigenvalues not converged
     total cpu time spent up to now is    60446.4 secs

     Computing kpt #:   161  of   201
     c_bands:  4 eigenvalues not converged
     total cpu time spent up to now is    60828.9 secs

     Computing kpt #:   162  of   201
     c_bands:  3 eigenvalues not converged
     total cpu time spent up to now is    61214.7 secs

     Computing kpt #:   163  of   201
     c_bands:  2 eigenvalues not converged
     total cpu time spent up to now is    61599.0 secs

     Computing kpt #:   164  of   201
     c_bands:  2 eigenvalues not converged
     total cpu time spent up to now is    61981.9 secs

     Computing kpt #:   165  of   201
     c_bands:  2 eigenvalues not converged
     total cpu time spent up to now is    62396.0 secs

     Computing kpt #:   166  of   201
     c_bands:  2 eigenvalues not converged
     total cpu time spent up to now is    62818.8 secs

     Computing kpt #:   167  of   201
     c_bands:  2 eigenvalues not converged
     total cpu time spent up to now is    63237.2 secs

     Computing kpt #:   168  of   201
     c_bands:  2 eigenvalues not converged
     total cpu time spent up to now is    63631.7 secs

     Computing kpt #:   169  of   201
     c_bands:  2 eigenvalues not converged
     total cpu time spent up to now is    64014.8 secs

     Computing kpt #:   170  of   201
     c_bands:  2 eigenvalues not converged
     total cpu time spent up to now is    64402.3 secs

     Computing kpt #:   171  of   201
     c_bands:  2 eigenvalues not converged
     total cpu time spent up to now is    64793.2 secs

     Computing kpt #:   172  of   201
     c_bands:  2 eigenvalues not converged
     total cpu time spent up to now is    65181.8 secs

     Computing kpt #:   173  of   201
     c_bands:  2 eigenvalues not converged
     total cpu time spent up to now is    65574.6 secs

     Computing kpt #:   174  of   201
     c_bands:  2 eigenvalues not converged
     total cpu time spent up to now is    65966.3 secs

     Computing kpt #:   175  of   201
     c_bands:  2 eigenvalues not converged
     total cpu time spent up to now is    66359.9 secs

     Computing kpt #:   176  of   201
     c_bands:  2 eigenvalues not converged
     total cpu time spent up to now is    66760.1 secs

     Computing kpt #:   177  of   201
     c_bands:  2 eigenvalues not converged
     total cpu time spent up to now is    67159.8 secs

     Computing kpt #:   178  of   201
     c_bands:  2 eigenvalues not converged
     total cpu time spent up to now is    67564.4 secs

     Computing kpt #:   179  of   201
     total cpu time spent up to now is    67957.7 secs

     Computing kpt #:   180  of   201
     total cpu time spent up to now is    68277.2 secs

     Computing kpt #:   181  of   201
     total cpu time spent up to now is    68625.6 secs

     Computing kpt #:   182  of   201
     total cpu time spent up to now is    68982.5 secs

     Computing kpt #:   183  of   201
     total cpu time spent up to now is    69339.5 secs

     Computing kpt #:   184  of   201
     total cpu time spent up to now is    69698.5 secs

     Computing kpt #:   185  of   201
     total cpu time spent up to now is    70057.6 secs

     Computing kpt #:   186  of   201
     total cpu time spent up to now is    70421.1 secs

     Computing kpt #:   187  of   201
     total cpu time spent up to now is    70787.1 secs

     Computing kpt #:   188  of   201
     total cpu time spent up to now is    71155.2 secs

     Computing kpt #:   189  of   201
     c_bands:  2 eigenvalues not converged
     total cpu time spent up to now is    71541.1 secs

     Computing kpt #:   190  of   201
     c_bands:  1 eigenvalues not converged
     total cpu time spent up to now is    71928.3 secs

     Computing kpt #:   191  of   201
     c_bands:  3 eigenvalues not converged
     total cpu time spent up to now is    72316.8 secs

     Computing kpt #:   192  of   201
     c_bands:  4 eigenvalues not converged
     total cpu time spent up to now is    72710.6 secs

     Computing kpt #:   193  of   201
     c_bands:  4 eigenvalues not converged
     total cpu time spent up to now is    73104.8 secs

     Computing kpt #:   194  of   201
     c_bands:  4 eigenvalues not converged
     total cpu time spent up to now is    73500.4 secs

     Computing kpt #:   195  of   201
     total cpu time spent up to now is    73894.0 secs

     Computing kpt #:   196  of   201
     total cpu time spent up to now is    74273.8 secs

     Computing kpt #:   197  of   201
     total cpu time spent up to now is    74653.4 secs

     Computing kpt #:   198  of   201
     total cpu time spent up to now is    75031.7 secs

     Computing kpt #:   199  of   201
     total cpu time spent up to now is    75408.6 secs

     Computing kpt #:   200  of   201
     total cpu time spent up to now is    75780.9 secs

     Computing kpt #:   201  of   201
     total cpu time spent up to now is    76152.2 secs

     ethr =  2.45E-12,  avg # of iterations =106.5

     total cpu time spent up to now is    76152.2 secs

     End of band structure calculation

          k = 0.3279 0.5679 0.0000 ( 53757 PWs)   bands (ev):

   -30.4720 -30.4719 -30.4715 -30.4714 -30.4712 -30.4711 -30.4710 -30.4710
   -30.4705 -30.4705 -30.4704 -30.4704 -30.4695 -30.4694 -30.4690 -30.4689
   -30.4688 -30.4686 -30.4686 -30.4684 -30.4681 -30.4681 -30.4679 -30.4679
   -30.4331 -30.4330 -30.4329 -30.4326 -30.4325 -30.4325 -30.4325 -30.4325
   -30.4323 -30.4320 -30.4320 -30.4319 -30.4287 -30.4287 -30.4285 -30.4284
   -30.4284 -30.4282 -30.4281 -30.4280 -30.4279 -30.4279 -30.4278 -30.4277
   -30.2955 -30.2955 -30.2953 -30.2953 -30.2948 -30.2948 -30.2944 -30.2944
   -30.2942 -30.2942 -30.2941 -30.2941 -30.2739 -30.2739 -30.2738 -30.2737
   -30.2733 -30.2733 -30.2728 -30.2728 -30.2726 -30.2726 -30.2725 -30.2725
   -29.0134 -29.0133 -29.0130 -29.0129 -29.0128 -29.0128 -29.0127 -29.0126
   -29.0125 -29.0125 -29.0124 -29.0123 -29.0122 -29.0120 -29.0120 -29.0119
   -29.0119 -29.0118 -29.0118 -29.0118 -29.0115 -29.0115 -29.0113 -29.0113
   -29.0102 -29.0100 -29.0097 -29.0095 -29.0094 -29.0092 -29.0092 -29.0090
   -29.0088 -29.0087 -29.0086 -29.0085 -28.9755 -28.9755 -28.9754 -28.9751
   -28.9750 -28.9750 -28.9749 -28.9748 -28.9747 -28.9744 -28.9744 -28.9743
   -28.9727 -28.9726 -28.9725 -28.9724 -28.9721 -28.9721 -28.9718 -28.9718
   -28.9715 -28.9712 -28.9711 -28.9711 -28.9691 -28.9691 -28.9688 -28.9685
   -28.9683 -28.9683 -28.9680 -28.9679 -28.9679 -28.9676 -28.9673 -28.9673
   -28.8385 -28.8385 -28.8383 -28.8383 -28.8378 -28.8378 -28.8374 -28.8374
   -28.8372 -28.8372 -28.8371 -28.8371 -28.8301 -28.8300 -28.8299 -28.8299
   -28.8294 -28.8294 -28.8290 -28.8290 -28.8288 -28.8288 -28.8287 -28.8287
   -28.8104 -28.8103 -28.8102 -28.8102 -28.8097 -28.8097 -28.8093 -28.8093
   -28.8091 -28.8091 -28.8089 -28.8089  -3.6257  -3.6253  -3.6250  -3.6248
    -3.6246  -3.6246  -3.6163  -3.6158  -3.6156  -3.6154  -3.6151  -3.6151
    -3.5589  -3.5589  -3.5588  -3.5585  -3.5585  -3.5584  -3.5484  -3.5483
    -3.5483  -3.5480  -3.5480  -3.5479  -3.5220  -3.5218  -3.5217  -3.5216
    -3.5210  -3.5207  -3.5205  -3.5203  -3.5202  -3.5200  -3.5200  -3.5199
    -2.1220  -2.1220  -2.1199  -2.1196  -2.1195  -2.1194  -2.0947  -2.0944
    -2.0944  -2.0943  -2.0940  -2.0937  -2.0839  -2.0837  -2.0836  -2.0835
    -2.0832  -2.0829  -2.0822  -2.0822  -2.0800  -2.0797  -2.0795  -2.0794
    -1.6729  -1.6727  -1.6726  -1.6726  -1.6725  -1.6724  -1.6410  -1.6405
    -1.6405  -1.6403  -1.6402  -1.6402  -1.6191  -1.6186  -1.6186  -1.6184
    -1.6183  -1.6183  -1.5510  -1.5508  -1.5506  -1.5506  -1.5506  -1.5505
     2.3418   2.3419   2.3422   2.3422   2.3423   2.3424   2.3605   2.3606
     2.3608   2.3608   2.3609   2.3610   2.5996   2.5997   2.6000   2.6002
     2.6002   2.6003   2.6752   2.6752   2.6756   2.6758   2.6758   2.6759
     2.7627   2.7628   2.7632   2.7634   2.7641   2.7642   2.7914   2.7914
     2.7916   2.7918   2.7925   2.7925   3.0973   3.0973   3.0975   3.0976
     3.0977   3.0978   3.1959   3.1959   3.1961   3.1961   3.1964   3.1965
     3.2076   3.2076   3.2078   3.2079   3.2082   3.2082   3.3052   3.3052
     3.3057   3.3058   3.3059   3.3059   3.8954   3.8954   3.8956   3.8957
     3.8960   3.8961   4.0723   4.0724   4.0724   4.0724   4.0728   4.0729
     4.1219   4.1220   4.1220   4.1220   4.1220   4.1220   4.3176   4.3177
     4.3183   4.3184   4.3184   4.3185   4.6295   4.6296   4.6297   4.6299
     4.6305   4.6306   5.0188   5.0189   5.0189   5.0190   5.0195   5.0196
[...]
     4.7225   4.7225   4.7467   4.7467   4.7587   4.7587   4.7635   4.7635
     4.8416   4.8416   5.0496   5.0496   5.0716   5.0716   5.1130   5.1130
     5.2491   5.2491   5.3116   5.3116   5.3249   5.3249   5.3944   5.3944
     5.4928   5.4929   5.5020   5.5020   5.5126   5.5127   5.5821   5.5822
     5.6677   5.6677   5.8459   5.8459   5.8539   5.8539   6.0100   6.0101
     6.1420   6.1420   6.1491   6.1491   6.1862   6.1863   6.2489   6.2489
     6.2596   6.2596   6.3298   6.3298   6.6349   6.6349   6.6821   6.6821
     6.7074   6.7074   7.0560   7.0560   7.0878   7.0878   7.3162   7.3162
     7.6960   7.6960   7.9276   7.9276   7.9537   7.9537   8.1655   8.1655
     8.2678   8.2678   8.2829   8.2829   8.2908   8.2908   8.3388   8.3388
     8.4428   8.4428   8.4646   8.4646   8.5257   8.5257   8.5363   8.5363
     8.7415   8.7415   8.7740   8.7740   8.8841   8.8841   8.9231   8.9231
     8.9854   8.9854   9.0261   9.0261   9.0286   9.0286   9.1423   9.1423
     9.4319   9.4319   9.4922   9.4922   9.5050   9.5050   9.5111   9.5111
     9.5186   9.5186   9.6053   9.6053   9.6372   9.6372   9.8735   9.8735
     9.9073   9.9073   9.9076   9.9076  10.0151  10.0151  10.0298  10.0298
    10.0772  10.0772  10.0930  10.0930  10.2802  10.2802  10.3196  10.3196
    10.3343  10.3343  10.4100  10.4100  10.4559  10.4559  10.4773  10.4773
    10.5744  10.5744  10.6062  10.6062  10.6158  10.6158  10.6305  10.6305
    10.8147  10.8147  10.8192  10.8192  10.8882  10.8882  10.8967  10.8967
    11.1861  11.1861  11.4006  11.4006  11.6305  11.6305  11.6331  11.6331
    11.6381  11.6381  11.7345  11.7345  11.9491  11.9491  12.0771  12.0771
    12.0982  12.0982  12.1550  12.1550  12.2088  12.2088  12.2526  12.2526
    12.3128  12.3128

          k = 0.4820 0.2783 0.0000 ( 53956 PWs)   bands (ev):

   -30.4720 -30.4720 -30.4715 -30.4715 -30.4712 -30.4712 -30.4710 -30.4710
   -30.4705 -30.4705 -30.4704 -30.4704 -30.4695 -30.4695 -30.4690 -30.4690
   -30.4687 -30.4687 -30.4686 -30.4686 -30.4681 -30.4681 -30.4680 -30.4680
   -30.4330 -30.4330 -30.4329 -30.4329 -30.4325 -30.4325 -30.4325 -30.4325
   -30.4323 -30.4323 -30.4321 -30.4321 -30.4289 -30.4289 -30.4288 -30.4288
   -30.4283 -30.4283 -30.4280 -30.4280 -30.4278 -30.4278 -30.4274 -30.4274
   -30.2955 -30.2955 -30.2953 -30.2953 -30.2949 -30.2949 -30.2944 -30.2944
   -30.2942 -30.2942 -30.2941 -30.2941 -30.2740 -30.2740 -30.2738 -30.2738
   -30.2733 -30.2733 -30.2729 -30.2729 -30.2727 -30.2727 -30.2725 -30.2725
   -29.0135 -29.0134 -29.0129 -29.0129 -29.0129 -29.0129 -29.0127 -29.0127
   -29.0125 -29.0125 -29.0124 -29.0124 -29.0121 -29.0121 -29.0120 -29.0120
   -29.0119 -29.0119 -29.0119 -29.0119 -29.0114 -29.0114 -29.0114 -29.0114
   -29.0102 -29.0102 -29.0096 -29.0096 -29.0094 -29.0094 -29.0092 -29.0092
   -29.0087 -29.0087 -29.0087 -29.0087 -28.9753 -28.9753 -28.9753 -28.9752
   -28.9751 -28.9751 -28.9748 -28.9748 -28.9748 -28.9748 -28.9747 -28.9747
   -28.9730 -28.9730 -28.9728 -28.9728 -28.9724 -28.9724 -28.9716 -28.9716
   -28.9714 -28.9714 -28.9710 -28.9710 -28.9688 -28.9688 -28.9686 -28.9686
   -28.9682 -28.9682 -28.9680 -28.9680 -28.9678 -28.9678 -28.9674 -28.9674
   -28.8385 -28.8385 -28.8384 -28.8384 -28.8379 -28.8379 -28.8375 -28.8375
   -28.8373 -28.8373 -28.8371 -28.8371 -28.8300 -28.8300 -28.8299 -28.8299
   -28.8294 -28.8294 -28.8290 -28.8290 -28.8288 -28.8288 -28.8286 -28.8286
   -28.8105 -28.8105 -28.8103 -28.8103 -28.8098 -28.8098 -28.8094 -28.8094
   -28.8092 -28.8092 -28.8090 -28.8090  -3.9302  -3.9302  -3.9300  -3.9300
    -3.9298  -3.9298  -3.8858  -3.8858  -3.8851  -3.8851  -3.8848  -3.8848
    -3.8751  -3.8751  -3.8745  -3.8745  -3.8743  -3.8743  -3.7792  -3.7792
    -3.7777  -3.7777  -3.7775  -3.7775  -3.7692  -3.7691  -3.7678  -3.7678
    -3.7677  -3.7676  -3.6940  -3.6940  -3.6927  -3.6927  -3.6925  -3.6925
    -2.4524  -2.4524  -2.4516  -2.4516  -2.4511  -2.4511  -2.3924  -2.3924
    -2.3918  -2.3918  -2.3903  -2.3903  -2.1112  -2.1112  -2.1077  -2.1077
    -2.0892  -2.0892  -2.0403  -2.0403  -2.0192  -2.0192  -2.0131  -2.0131
    -1.5620  -1.5620  -1.5470  -1.5470  -1.5144  -1.5144  -1.4746  -1.4746
    -1.4425  -1.4425  -1.4266  -1.4266  -1.1490  -1.1490  -1.1454  -1.1454
    -1.1418  -1.1418  -0.4725  -0.4725  -0.4721  -0.4721  -0.4717  -0.4717
     1.8673   1.8673   1.8781   1.8781   1.8865   1.8865   2.0216   2.0216
     2.0374   2.0374   2.0602   2.0602   2.6943   2.6943   2.7638   2.7638
     2.8458   2.8458   3.0056   3.0056   3.1273   3.1273   3.2697   3.2697
     3.2985   3.2985   3.3064   3.3064   3.3268   3.3268   3.4432   3.4432
     3.4524   3.4524   3.4712   3.4712   3.6126   3.6126   3.7334   3.7334
     3.8159   3.8159   3.8448   3.8448   3.8528   3.8528   3.8541   3.8541
     3.9258   3.9258   3.9493   3.9493   3.9551   3.9551   3.9958   3.9958
     4.0412   4.0412   4.0526   4.0526   4.2156   4.2156   4.2228   4.2228
     4.3534   4.3534   4.3760   4.3760   4.4456   4.4457   4.4626   4.4626
     4.4692   4.4692   4.5347   4.5347   4.5492   4.5492   4.7001   4.7002
     4.7173   4.7173   4.7444   4.7444   4.7573   4.7573   4.7756   4.7756
     4.8330   4.8330   5.0540   5.0540   5.0687   5.0687   5.1112   5.1112
     5.2393   5.2393   5.3157   5.3157   5.3241   5.3241   5.3909   5.3909
     5.4987   5.4987   5.5007   5.5007   5.5118   5.5119   5.5912   5.5913
     5.6496   5.6496   5.8453   5.8453   5.8507   5.8507   6.0112   6.0112
     6.1402   6.1402   6.1550   6.1551   6.1814   6.1814   6.2479   6.2479
     6.2679   6.2680   6.3169   6.3169   6.6455   6.6455   6.6863   6.6863
     6.6940   6.6940   7.0603   7.0603   7.0815   7.0815   7.3156   7.3156
     7.6952   7.6952   7.9315   7.9315   7.9489   7.9489   8.1572   8.1572
     8.2721   8.2721   8.2823   8.2823   8.2872   8.2872   8.3667   8.3667
     8.4449   8.4449   8.4607   8.4607   8.5002   8.5002   8.5257   8.5257
     8.7467   8.7467   8.7685   8.7685   8.9229   8.9229   8.9250   8.9250
     8.9854   8.9854   9.0261   9.0261   9.0273   9.0273   9.0997   9.0997
     9.4319   9.4319   9.5053   9.5053   9.5079   9.5079   9.5092   9.5092
     9.5257   9.5257   9.6096   9.6096   9.6311   9.6311   9.8798   9.8798
     9.8914   9.8914   9.9026   9.9026  10.0122  10.0122  10.0229  10.0229
    10.0810  10.0810  10.0920  10.0920  10.3004  10.3004  10.3175  10.3175
    10.3499  10.3499  10.4174  10.4174  10.4484  10.4484  10.4576  10.4576
    10.5782  10.5782  10.5999  10.5999  10.6156  10.6156  10.6242  10.6242
    10.8155  10.8155  10.8193  10.8193  10.8902  10.8902  10.8960  10.8960
    11.2171  11.2171  11.3621  11.3621  11.6324  11.6324  11.6343  11.6343
    11.6410  11.6410  11.7705  11.7705  11.9213  11.9213  12.0796  12.0796
    12.0937  12.0937  12.1610  12.1610  12.2339  12.2339  12.2401  12.2401
    12.3038  12.3038

          k = 0.4869 0.2811 0.0000 ( 53984 PWs)   bands (ev):

   -30.4720 -30.4720 -30.4715 -30.4715 -30.4712 -30.4712 -30.4710 -30.4710
   -30.4705 -30.4705 -30.4704 -30.4704 -30.4695 -30.4695 -30.4690 -30.4690
   -30.4687 -30.4687 -30.4686 -30.4686 -30.4681 -30.4681 -30.4680 -30.4680
   -30.4330 -30.4330 -30.4329 -30.4329 -30.4325 -30.4325 -30.4325 -30.4325
   -30.4323 -30.4323 -30.4321 -30.4321 -30.4289 -30.4289 -30.4288 -30.4288
   -30.4283 -30.4283 -30.4280 -30.4280 -30.4278 -30.4278 -30.4274 -30.4274
   -30.2955 -30.2955 -30.2953 -30.2953 -30.2949 -30.2949 -30.2944 -30.2944
   -30.2942 -30.2942 -30.2941 -30.2941 -30.2740 -30.2740 -30.2738 -30.2738
   -30.2733 -30.2733 -30.2729 -30.2729 -30.2727 -30.2727 -30.2726 -30.2726
   -29.0135 -29.0135 -29.0129 -29.0129 -29.0129 -29.0129 -29.0127 -29.0127
   -29.0125 -29.0125 -29.0124 -29.0124 -29.0121 -29.0121 -29.0120 -29.0120
   -29.0119 -29.0119 -29.0119 -29.0119 -29.0114 -29.0114 -29.0114 -29.0114
   -29.0102 -29.0102 -29.0097 -29.0097 -29.0094 -29.0094 -29.0092 -29.0092
   -29.0087 -29.0087 -29.0087 -29.0087 -28.9753 -28.9753 -28.9752 -28.9752
   -28.9751 -28.9751 -28.9748 -28.9748 -28.9748 -28.9748 -28.9747 -28.9747
   -28.9730 -28.9730 -28.9728 -28.9728 -28.9724 -28.9724 -28.9716 -28.9716
   -28.9714 -28.9714 -28.9710 -28.9710 -28.9688 -28.9688 -28.9686 -28.9686
   -28.9682 -28.9682 -28.9680 -28.9680 -28.9678 -28.9678 -28.9674 -28.9674
   -28.8385 -28.8385 -28.8384 -28.8384 -28.8379 -28.8379 -28.8375 -28.8375
   -28.8373 -28.8373 -28.8371 -28.8371 -28.8300 -28.8300 -28.8299 -28.8299
   -28.8294 -28.8294 -28.8290 -28.8290 -28.8288 -28.8288 -28.8286 -28.8286
   -28.8105 -28.8105 -28.8103 -28.8103 -28.8098 -28.8098 -28.8094 -28.8094
   -28.8092 -28.8092 -28.8090 -28.8090  -3.9211  -3.9211  -3.9210  -3.9210
    -3.9209  -3.9209  -3.8781  -3.8781  -3.8774  -3.8774  -3.8773  -3.8773
    -3.8731  -3.8731  -3.8725  -3.8725  -3.8724  -3.8724  -3.7808  -3.7808
    -3.7793  -3.7793  -3.7791  -3.7791  -3.7742  -3.7742  -3.7728  -3.7727
    -3.7726  -3.7726  -3.6986  -3.6986  -3.6973  -3.6973  -3.6971  -3.6971
    -2.4358  -2.4358  -2.4348  -2.4348  -2.4345  -2.4345  -2.4051  -2.4051
    -2.4036  -2.4036  -2.4030  -2.4030  -2.1153  -2.1153  -2.1046  -2.1046
    -2.0942  -2.0942  -2.0384  -2.0384  -2.0267  -2.0267  -2.0123  -2.0123
    -1.5662  -1.5662  -1.5412  -1.5412  -1.5242  -1.5242  -1.4682  -1.4682
    -1.4515  -1.4515  -1.4258  -1.4258  -1.1521  -1.1521  -1.1469  -1.1469
    -1.1450  -1.1450  -0.4753  -0.4753  -0.4749  -0.4749  -0.4745  -0.4745
     1.8656   1.8656   1.8792   1.8792   1.8835   1.8835   2.0238   2.0238
     2.0318   2.0318   2.0602   2.0602   2.6916   2.6916   2.7825   2.7825
     2.8236   2.8236   3.0349   3.0349   3.0959   3.0959   3.2709   3.2709
     3.2993   3.2993   3.3033   3.3033   3.3495   3.3496   3.4211   3.4211
     3.4561   3.4561   3.4656   3.4656   3.6075   3.6075   3.7571   3.7571
     3.7991   3.7991   3.8439   3.8439   3.8519   3.8519   3.8527   3.8527
     3.9250   3.9250   3.9496   3.9496   3.9525   3.9525   3.9945   3.9945
     4.0440   4.0440   4.0496   4.0496   4.2161   4.2162   4.2196   4.2196
     4.3534   4.3534   4.3747   4.3747   4.4490   4.4490   4.4575   4.4576
     4.4830   4.4830   4.5166   4.5166   4.5496   4.5496   4.7033   4.7033
     4.7119   4.7119   4.7451   4.7451   4.7520   4.7520   4.7907   4.7907
     4.8232   4.8232   5.0581   5.0581   5.0655   5.0655   5.1101   5.1101
     5.2330   5.2330   5.3189   5.3189   5.3230   5.3230   5.3889   5.3889
     5.5000   5.5000   5.5036   5.5036   5.5101   5.5102   5.6028   5.6029
     5.6325   5.6325   5.8455   5.8455   5.8482   5.8482   6.0119   6.0119
     6.1391   6.1391   6.1615   6.1615   6.1750   6.1751   6.2472   6.2472
     6.2788   6.2788   6.3038   6.3039   6.6567   6.6567   6.6810   6.6810
     6.6889   6.6889   7.0650   7.0650   7.0756   7.0756   7.3153   7.3153
     7.6947   7.6947   7.9356   7.9356   7.9443   7.9443   8.1522   8.1522
     8.2760   8.2760   8.2819   8.2819   8.2836   8.2836   8.3965   8.3965
     8.4454   8.4454   8.4573   8.4573   8.4675   8.4675   8.5258   8.5258
     8.7520   8.7520   8.7630   8.7630   8.9227   8.9227   8.9660   8.9660
     8.9854   8.9854   9.0224   9.0224   9.0286   9.0286   9.0593   9.0593
     9.4318   9.4318   9.5058   9.5058   9.5077   9.5077   9.5106   9.5106
     9.5387   9.5387   9.6144   9.6144   9.6252   9.6252   9.8793   9.8793
     9.8859   9.8859   9.8973   9.8973  10.0112  10.0112  10.0189  10.0189
    10.0845  10.0845  10.0901  10.0901  10.3092  10.3092  10.3154  10.3154
    10.3760  10.3760  10.4245  10.4245  10.4332  10.4332  10.4411  10.4411
    10.5826  10.5826  10.5935  10.5935  10.6161  10.6161  10.6200  10.6200
    10.8160  10.8160  10.8194  10.8194  10.8920  10.8920  10.8950  10.8950
    11.2510  11.2510  11.3241  11.3241  11.6337  11.6337  11.6348  11.6348
    11.6426  11.6426  11.8031  11.8031  11.8937  11.8937  12.0825  12.0825
    12.0896  12.0896  12.1662  12.1662  12.2310  12.2310  12.2561  12.2561
    12.2912  12.2912

          k = 0.4918 0.2840 0.0000 ( 53974 PWs)   bands (ev):

   -30.4720 -30.4720 -30.4715 -30.4715 -30.4712 -30.4712 -30.4710 -30.4710
   -30.4705 -30.4705 -30.4704 -30.4704 -30.4695 -30.4695 -30.4690 -30.4690
   -30.4687 -30.4687 -30.4686 -30.4686 -30.4681 -30.4681 -30.4680 -30.4680
   -30.4330 -30.4330 -30.4329 -30.4329 -30.4325 -30.4325 -30.4325 -30.4325
   -30.4323 -30.4323 -30.4321 -30.4321 -30.4289 -30.4289 -30.4288 -30.4288
   -30.4283 -30.4283 -30.4280 -30.4280 -30.4278 -30.4278 -30.4274 -30.4274
   -30.2955 -30.2955 -30.2953 -30.2953 -30.2949 -30.2949 -30.2944 -30.2944
   -30.2942 -30.2942 -30.2941 -30.2941 -30.2740 -30.2740 -30.2738 -30.2738
   -30.2733 -30.2733 -30.2729 -30.2729 -30.2727 -30.2727 -30.2726 -30.2726
   -29.0135 -29.0135 -29.0129 -29.0129 -29.0129 -29.0129 -29.0127 -29.0127
   -29.0125 -29.0125 -29.0124 -29.0124 -29.0121 -29.0121 -29.0120 -29.0120
   -29.0119 -29.0119 -29.0119 -29.0119 -29.0114 -29.0114 -29.0114 -29.0114
   -29.0102 -29.0102 -29.0097 -29.0097 -29.0094 -29.0094 -29.0092 -29.0092
   -29.0087 -29.0087 -29.0087 -29.0087 -28.9753 -28.9753 -28.9752 -28.9752
   -28.9751 -28.9751 -28.9748 -28.9748 -28.9748 -28.9748 -28.9747 -28.9747
   -28.9730 -28.9730 -28.9728 -28.9728 -28.9724 -28.9724 -28.9716 -28.9716
   -28.9714 -28.9714 -28.9710 -28.9710 -28.9688 -28.9688 -28.9686 -28.9686
   -28.9682 -28.9682 -28.9680 -28.9680 -28.9678 -28.9678 -28.9674 -28.9674
   -28.8385 -28.8385 -28.8384 -28.8384 -28.8379 -28.8379 -28.8375 -28.8375
   -28.8373 -28.8373 -28.8371 -28.8371 -28.8300 -28.8300 -28.8299 -28.8299
   -28.8294 -28.8294 -28.8290 -28.8290 -28.8288 -28.8288 -28.8286 -28.8286
   -28.8105 -28.8105 -28.8103 -28.8103 -28.8098 -28.8098 -28.8094 -28.8094
   -28.8092 -28.8092 -28.8090 -28.8090  -3.9179  -3.9179  -3.9178  -3.9178
    -3.9177  -3.9177  -3.8756  -3.8756  -3.8749  -3.8749  -3.8747  -3.8747
    -3.8724  -3.8724  -3.8717  -3.8717  -3.8716  -3.8716  -3.7820  -3.7820
    -3.7805  -3.7805  -3.7803  -3.7803  -3.7755  -3.7755  -3.7740  -3.7740
    -3.7739  -3.7739  -3.7001  -3.7001  -3.6988  -3.6988  -3.6986  -3.6986
    -2.4239  -2.4239  -2.4231  -2.4231  -2.4229  -2.4229  -2.4150  -2.4150
    -2.4148  -2.4148  -2.4129  -2.4129  -2.1168  -2.1168  -2.1002  -2.1002
    -2.0995  -2.0995  -2.0339  -2.0339  -2.0330  -2.0330  -2.0120  -2.0120
    -1.5676  -1.5676  -1.5336  -1.5336  -1.5332  -1.5332  -1.4605  -1.4605
    -1.4600  -1.4600  -1.4256  -1.4256  -1.1531  -1.1531  -1.1469  -1.1469
    -1.1466  -1.1466  -0.4763  -0.4763  -0.4759  -0.4759  -0.4754  -0.4754
     1.8650   1.8650   1.8807   1.8807   1.8814   1.8814   2.0267   2.0267
     2.0277   2.0277   2.0602   2.0602   2.6906   2.6906   2.8024   2.8024
     2.8026   2.8026   3.0644   3.0644   3.0657   3.0657   3.2710   3.2710
     3.3008   3.3008   3.3011   3.3011   3.3626   3.3626   3.4085   3.4085
     3.4602   3.4602   3.4609   3.4609   3.6059   3.6059   3.7788   3.7788
     3.7796   3.7796   3.8436   3.8436   3.8516   3.8516   3.8523   3.8523
     3.9248   3.9248   3.9503   3.9503   3.9511   3.9511   3.9940   3.9940
     4.0467   4.0467   4.0469   4.0469   4.2170   4.2170   4.2179   4.2179
     4.3534   4.3534   4.3743   4.3743   4.4529   4.4529   4.4531   4.4531
     4.4989   4.4989   4.4993   4.4993   4.5497   4.5497   4.7069   4.7069
     4.7075   4.7075   4.7476   4.7476   4.7481   4.7481   4.7992   4.7992
     4.8165   4.8165   5.0619   5.0619   5.0620   5.0620   5.1098   5.1098
     5.2309   5.2309   5.3212   5.3212   5.3214   5.3214   5.3883   5.3883
     5.4997   5.4997   5.5074   5.5074   5.5075   5.5075   5.6166   5.6166
     5.6169   5.6169   5.8464   5.8464   5.8465   5.8465   6.0122   6.0122
     6.1387   6.1387   6.1680   6.1680   6.1684   6.1684   6.2470   6.2470
     6.2910   6.2910   6.2911   6.2911   6.6684   6.6684   6.6688   6.6688
     6.6898   6.6898   7.0700   7.0700   7.0701   7.0701   7.3152   7.3152
     7.6946   7.6946   7.9397   7.9397   7.9400   7.9400   8.1505   8.1505
     8.2794   8.2794   8.2803   8.2803   8.2818   8.2818   8.4268   8.4268
     8.4273   8.4273   8.4552   8.4552   8.4553   8.4553   8.5258   8.5258
     8.7570   8.7570   8.7579   8.7579   8.9227   8.9227   8.9854   8.9854
     9.0039   9.0039   9.0044   9.0044   9.0336   9.0336   9.0340   9.0340
     9.4317   9.4317   9.5064   9.5064   9.5068   9.5068   9.5108   9.5108
     9.5440   9.5440   9.6192   9.6192   9.6200   9.6200   9.8747   9.8747
     9.8916   9.8916   9.8919   9.8919  10.0111  10.0111  10.0174  10.0174
    10.0875  10.0875  10.0876  10.0876  10.3127  10.3127  10.3133  10.3133
    10.4047  10.4047  10.4060  10.4060  10.4293  10.4293  10.4363  10.4363
    10.5874  10.5874  10.5879  10.5879  10.6174  10.6174  10.6176  10.6176
    10.8162  10.8162  10.8194  10.8194  10.8935  10.8935  10.8936  10.8936
    11.2866  11.2866  11.2872  11.2872  11.6342  11.6342  11.6349  11.6349
    11.6431  11.6431  11.8206  11.8206  11.8779  11.8779  12.0852  12.0852
    12.0865  12.0865  12.1684  12.1684  12.2276  12.2276  12.2751  12.2751
    12.2753  12.2753

     Writing output data file ./temp/sb4te3.save/

     init_run     :      2.58s CPU      2.81s WALL (       1 calls)
     electrons    :  75640.03s CPU  76146.05s WALL (       1 calls)

     Called by init_run:
     wfcinit      :      0.00s CPU      0.06s WALL (       1 calls)
     wfcinit:atom :      2.87s CPU      4.90s WALL (     201 calls)
     wfcinit:wfcr :   1140.67s CPU   1150.68s WALL (     201 calls)
     potinit      :      0.69s CPU      0.72s WALL (       1 calls)
     hinit0       :      0.65s CPU      0.66s WALL (       1 calls)

     Called by electrons:
     c_bands      :  75639.99s CPU  76145.99s WALL (       1 calls)
     v_of_rho     :      0.06s CPU      0.07s WALL (       1 calls)
     v_h          :      0.00s CPU      0.00s WALL (       1 calls)
     v_xc         :      0.06s CPU      0.06s WALL (       1 calls)
     newd         :      1.05s CPU      1.17s WALL (       1 calls)
     PAW_pot      :      0.54s CPU      0.55s WALL (       1 calls)

     Called by c_bands:
     init_us_2    :      3.52s CPU      3.57s WALL (     201 calls)
     cegterg      :  74412.14s CPU  74880.50s WALL (    1115 calls)

     Called by sum_band:

     Called by *egterg:
     cdiaghg      :   4805.35s CPU   4825.09s WALL (   21615 calls)
     cegterg:over :   8949.15s CPU   8990.07s WALL (   21414 calls)
     cegterg:upda :   5601.50s CPU   5637.14s WALL (   21414 calls)
     cegterg:last :  15885.79s CPU  15957.54s WALL (    8951 calls)
     cdiaghg:chol :    311.08s CPU    312.49s WALL (   21615 calls)
     cdiaghg:inve :    311.67s CPU    312.94s WALL (   21615 calls)
     cdiaghg:para :    798.64s CPU    802.24s WALL (   43230 calls)
     h_psi        :  31372.02s CPU  31602.19s WALL (   22730 calls)
     s_psi        :   7807.74s CPU   7842.56s WALL (   22730 calls)
     g_psi        :     91.67s CPU     92.21s WALL (   21414 calls)

     Called by h_psi:
     h_psi:calbec :   7888.33s CPU   7923.96s WALL (   22730 calls)
     vloc_psi     :  15644.40s CPU  15780.15s WALL (   22730 calls)
     add_vuspsi   :   7739.24s CPU   7774.88s WALL (   22730 calls)

     General routines
     calbec       :   7888.21s CPU   7923.89s WALL (   22730 calls)
     fft          :      0.07s CPU      0.08s WALL (      19 calls)
     ffts         :      0.01s CPU      0.01s WALL (       4 calls)
     fftw         :  14313.96s CPU  14438.48s WALL (17639164 calls)
     interpolate  :      0.02s CPU      0.02s WALL (       4 calls)
     davcio       :      0.23s CPU   1169.18s WALL (     402 calls)

     Parallel routines
     fft_scatt_xy :   1052.26s CPU   1060.38s WALL (17639187 calls)
     fft_scatt_yz :   6146.94s CPU   6204.58s WALL (17639187 calls)

     PAW routines
     PAW_pot      :      0.54s CPU      0.55s WALL (       1 calls)

     PWSCF        :     21h 5m CPU     21h38m WALL


   This run was terminated on:  17:33: 1  26Mar2024            

=------------------------------------------------------------------------------=
   JOB DONE.
=------------------------------------------------------------------------------=
