
     Program PWSCF v.6.7MaX starts on 25Mar2024 at 13:50:59 

     This program is part of the open-source Quantum ESPRESSO suite
     for quantum simulation of materials; please cite
         "P. Giannozzi et al., J. Phys.:Condens. Matter 21 395502 (2009);
         "P. Giannozzi et al., J. Phys.:Condens. Matter 29 465901 (2017);
          URL http://www.quantum-espresso.org", 
     in publications or presentations arising from this work. More details at
     http://www.quantum-espresso.org/quote

     Parallel version (MPI), running on    18 processors

     MPI processes distributed on     1 nodes
     R & G space division:  proc/nbgrp/npool/nimage =      18
     Waiting for input...
     Reading input from standard input
Warning: card &CELL ignored
Warning: card     CELL_DYNAMICS  = 'BFGS', ignored
Warning: card     PRESS          = 0.0, ignored
Warning: card     PRESS_CONV_THR = 0.5, ignored
Warning: card     CELL_DOFREE = 'IBRAV+2DXY' ignored
Warning: card / ignored

     Current dimensions of program PWSCF are:
     Max number of different atomic species (ntypx) = 10
     Max number of k-points (npk) =  40000
     Max angular momentum in pseudopotentials (lmaxx) =  3
     file Sb.upf: wavefunction(s)  5S renormalized
     file Te.upf: wavefunction(s)  5S 5P 4D 4D renormalized

     --------------------------------------------
     Parameters for DFT-D3 Dispersion Correction:
     --------------------------------------------
       Reference C6 values for interpolation: 

         atom   Coordination number   C6
         Sb         0.000           985.88
         Sb         0.975           946.94
         Sb         1.952           896.11
         Sb         2.932           834.76
         Te         0.000           851.07
         Te         0.981           850.20
         Te         1.964           837.16

       Values used:

         atom   Coordination number  R0_AB[au]  C6      C8
         Sb         4.399            3.794    834.76  89580.54
         Sb         4.399            3.794    834.76  89580.54
         Sb         4.398            3.794    834.76  89580.54
         Sb         4.398            3.794    834.76  89580.54
         Sb         4.398            3.794    834.76  89580.54
         Sb         4.398            3.794    834.76  89580.54
         Sb         4.032            3.794    834.76  89580.56
         Sb         4.032            3.794    834.76  89580.56
         Sb         4.031            3.794    834.76  89580.56
         Sb         4.030            3.794    834.76  89580.56
         Sb         4.030            3.794    834.76  89580.56
         Sb         4.031            3.794    834.76  89580.56
         Sb         4.762            3.794    834.76  89580.53
         Sb         4.762            3.794    834.76  89580.53
         Sb         4.761            3.794    834.76  89580.53
         Sb         4.764            3.794    834.76  89580.53
         Sb         4.764            3.794    834.76  89580.53
         Sb         4.761            3.794    834.76  89580.53
         Sb         4.723            3.794    834.76  89580.53
         Sb         4.723            3.794    834.76  89580.53
         Sb         4.726            3.794    834.76  89580.53
         Sb         4.720            3.794    834.76  89580.53
         Sb         4.720            3.794    834.76  89580.53
         Sb         4.726            3.794    834.76  89580.53
         Te         3.732            3.676    837.16  84978.05
         Te         3.732            3.676    837.16  84978.05
         Te         3.731            3.676    837.16  84978.05
         Te         3.730            3.676    837.16  84978.05
         Te         3.730            3.676    837.16  84978.05
         Te         3.731            3.676    837.16  84978.05
         Te         4.287            3.676    837.16  84978.05
         Te         4.287            3.676    837.16  84978.05
         Te         4.289            3.676    837.16  84978.05
         Te         4.286            3.676    837.16  84978.05
         Te         4.286            3.676    837.16  84978.05
         Te         4.289            3.676    837.16  84978.05
         Te         3.194            3.676    837.16  84978.06
         Te         3.194            3.676    837.16  84978.06
         Te         3.191            3.676    837.16  84978.06
         Te         3.193            3.676    837.16  84978.06
         Te         3.193            3.676    837.16  84978.06
         Te         3.191            3.676    837.16  84978.06

         Molecular C6 ( Ry / a.u.^6 ) =   1474189.45


     Subspace diagonalization in iterative solution of the eigenvalue problem:
     one sub-group per band group will be used
     scalapack distributed-memory algorithm (size of sub-group:  4*  4 procs)

     Message from routine setup:
     using ibrav=0 with symmetry is DISCOURAGED, use correct ibrav instead

     Parallelization info
     --------------------
     sticks:   dense  smooth     PW     G-vecs:    dense   smooth      PW
     Min          64      51     14                33498    23963    3592
     Max          65      52     15                33589    24044    3695
     Sum        1159     931    253               603605   431947   64979


     Title: 
     sb4te3                                                                     


     bravais-lattice index     =            0
     lattice parameter (alat)  =       8.0793  a.u.
     unit-cell volume          =    9037.7148 (a.u.)^3
     number of atoms/cell      =           42
     number of atomic types    =            2
     number of electrons       =       408.00
     number of Kohn-Sham states=          490
     kinetic-energy cutoff     =      50.0000  Ry
     charge density cutoff     =     250.0000  Ry
     scf convergence threshold =      1.0E-08
     mixing beta               =       0.4000
     number of iterations used =            8  plain     mixing
     Exchange-correlation= SLA  PW   PBX  PBC
                           (   1   4   3   4   0   0   0)
     Non magnetic calculation with spin-orbit


     celldm(1)=   8.079335  celldm(2)=   0.000000  celldm(3)=   0.000000
     celldm(4)=   0.000000  celldm(5)=   0.000000  celldm(6)=   0.000000

     crystal axes: (cart. coord. in units of alat)
               a(1) = (   1.016584  -0.000000   0.000000 )  
               a(2) = (  -0.508292   0.880387   0.000000 )  
               a(3) = (  -0.000000  -0.000000  19.147616 )  

     reciprocal axes: (cart. coord. in units 2 pi/alat)
               b(1) = (  0.983687  0.567932  0.000000 )  
               b(2) = (  0.000000  1.135864  0.000000 )  
               b(3) = ( -0.000000 -0.000000  0.052226 )  


     PseudoPot. # 1 for Sb read from file:
     ./Sb.upf
     MD5 check sum: fdb47162c1d03e2226be93e80d85f130
     Pseudo is Projector augmented-wave + core cor, Zval =  5.0
     Generated using &quot;atomic&quot; code by A. Dal Corso  v.6.2.2
     Shape of augmentation charge: PSQ
     Using radial grid of 1243 points, 10 beta functions with: 
                l(1) =   0
                l(2) =   0
                l(3) =   1
                l(4) =   1
                l(5) =   1
                l(6) =   1
                l(7) =   2
                l(8) =   2
                l(9) =   2
               l(10) =   2
     Q(r) pseudized with 0 coefficients 


     PseudoPot. # 2 for Te read from file:
     ./Te.upf
     MD5 check sum: 2c31ffb1692c49818345304528ca1e89
     Pseudo is Projector augmented-wave + core cor, Zval = 16.0
     Generated using "atomic" code by A. Dal Corso  v.5.0.2 svn rev. 9415
     Shape of augmentation charge: PSQ
     Using radial grid of 1245 points, 10 beta functions with: 
                l(1) =   0
                l(2) =   0
                l(3) =   1
                l(4) =   1
                l(5) =   1
                l(6) =   1
                l(7) =   2
                l(8) =   2
                l(9) =   2
               l(10) =   2
     Q(r) pseudized with 0 coefficients 


     atomic species   valence    mass     pseudopotential
        Sb             5.00   121.76000     Sb( 1.00)
        Te            16.00   127.60000     Te( 1.00)

     12 Sym. Ops., with inversion, found


                                    s                        frac. trans.

      isym =  1     identity                                     

 cryst.   s( 1) = (     1          0          0      )
                  (     0          1          0      )
                  (     0          0          1      )

 cart.    s( 1) = (  1.0000000  0.0000000  0.0000000 )
                  (  0.0000000  1.0000000  0.0000000 )
                  (  0.0000000  0.0000000  1.0000000 )


      isym =  2     180 deg rotation - cart. axis [1,0,0]        

 cryst.   s( 2) = (     1          0          0      )
                  (    -1         -1          0      )
                  (     0          0         -1      )

 cart.    s( 2) = (  1.0000000  0.0000000  0.0000000 )
                  (  0.0000000 -1.0000000  0.0000000 )
                  (  0.0000000  0.0000000 -1.0000000 )


      isym =  3     120 deg rotation - cryst. axis [0,0,1]       

 cryst.   s( 3) = (     0          1          0      )
                  (    -1         -1          0      )
                  (     0          0          1      )

 cart.    s( 3) = ( -0.5000000 -0.8660254  0.0000000 )
                  (  0.8660254 -0.5000000  0.0000000 )
                  (  0.0000000  0.0000000  1.0000000 )


      isym =  4     120 deg rotation - cryst. axis [0,0,-1]      

 cryst.   s( 4) = (    -1         -1          0      )
                  (     1          0          0      )
                  (     0          0          1      )

 cart.    s( 4) = ( -0.5000000  0.8660254  0.0000000 )
                  ( -0.8660254 -0.5000000  0.0000000 )
                  (  0.0000000  0.0000000  1.0000000 )


      isym =  5     180 deg rotation - cryst. axis [0,1,0]       

 cryst.   s( 5) = (    -1         -1          0      )
                  (     0          1          0      )
                  (     0          0         -1      )

 cart.    s( 5) = ( -0.5000000 -0.8660254  0.0000000 )
                  ( -0.8660254  0.5000000  0.0000000 )
                  (  0.0000000  0.0000000 -1.0000000 )


      isym =  6     180 deg rotation - cryst. axis [1,1,0]       

 cryst.   s( 6) = (     0          1          0      )
                  (     1          0          0      )
                  (     0          0         -1      )

 cart.    s( 6) = ( -0.5000000  0.8660254  0.0000000 )
                  (  0.8660254  0.5000000  0.0000000 )
                  (  0.0000000  0.0000000 -1.0000000 )


      isym =  7     inversion                                    

 cryst.   s( 7) = (    -1          0          0      )
                  (     0         -1          0      )
                  (     0          0         -1      )

 cart.    s( 7) = ( -1.0000000  0.0000000  0.0000000 )
                  (  0.0000000 -1.0000000  0.0000000 )
                  (  0.0000000  0.0000000 -1.0000000 )


      isym =  8     inv. 180 deg rotation - cart. axis [1,0,0]   

 cryst.   s( 8) = (    -1          0          0      )
                  (     1          1          0      )
                  (     0          0          1      )

 cart.    s( 8) = ( -1.0000000  0.0000000  0.0000000 )
                  (  0.0000000  1.0000000  0.0000000 )
                  (  0.0000000  0.0000000  1.0000000 )


      isym =  9     inv. 120 deg rotation - cryst. axis [0,0,1]  

 cryst.   s( 9) = (     0         -1          0      )
                  (     1          1          0      )
                  (     0          0         -1      )

 cart.    s( 9) = (  0.5000000  0.8660254  0.0000000 )
                  ( -0.8660254  0.5000000  0.0000000 )
                  (  0.0000000  0.0000000 -1.0000000 )


      isym = 10     inv. 120 deg rotation - cryst. axis [0,0,-1] 

 cryst.   s(10) = (     1          1          0      )
                  (    -1          0          0      )
                  (     0          0         -1      )

 cart.    s(10) = (  0.5000000 -0.8660254  0.0000000 )
                  (  0.8660254  0.5000000  0.0000000 )
                  (  0.0000000  0.0000000 -1.0000000 )


      isym = 11     inv. 180 deg rotation - cryst. axis [0,1,0]  

 cryst.   s(11) = (     1          1          0      )
                  (     0         -1          0      )
                  (     0          0          1      )

 cart.    s(11) = (  0.5000000  0.8660254  0.0000000 )
                  (  0.8660254 -0.5000000  0.0000000 )
                  (  0.0000000  0.0000000  1.0000000 )


      isym = 12     inv. 180 deg rotation - cryst. axis [1,1,0]  

 cryst.   s(12) = (     0         -1          0      )
                  (    -1          0          0      )
                  (     0          0          1      )

 cart.    s(12) = (  0.5000000 -0.8660254  0.0000000 )
                  ( -0.8660254 -0.5000000  0.0000000 )
                  (  0.0000000  0.0000000  1.0000000 )


   Cartesian axes

     site n.     atom                  positions (alat units)
         1           Sb  tau(   1) = (   0.5082920   0.2934625   0.2657629  )
         2           Sb  tau(   2) = (  -0.0000000   0.5869250  18.8818531  )
         3           Sb  tau(   3) = (  -0.0000000   0.5869250   6.6483419  )
         4           Sb  tau(   4) = (   0.0000000  -0.0000000   6.1166984  )
         5           Sb  tau(   5) = (   0.0000000   0.0000000  13.0309181  )
         6           Sb  tau(   6) = (   0.5082919   0.2934625  12.4992747  )
         7           Sb  tau(   7) = (   0.0000000   0.0000000   0.6239473  )
         8           Sb  tau(   8) = (  -0.0000000  -0.0000000  18.5236687  )
         9           Sb  tau(   9) = (   0.5082920   0.2934625   7.0065309  )
        10           Sb  tau(  10) = (   0.5082920   0.2934625   5.7585006  )
        11           Sb  tau(  11) = (  -0.0000000   0.5869250  13.3891160  )
        12           Sb  tau(  12) = (  -0.0000000   0.5869250  12.1410856  )
        13           Sb  tau(  13) = (   0.5082920   0.2934625   1.5778551  )
        14           Sb  tau(  14) = (  -0.0000000   0.5869250  17.5697607  )
        15           Sb  tau(  15) = (  -0.0000000   0.5869250   7.9605149  )
        16           Sb  tau(  16) = (   0.0000000   0.0000000   4.8044444  )
        17           Sb  tau(  17) = (  -0.0000000  -0.0000000  14.3431721  )
        18           Sb  tau(  18) = (   0.5082919   0.2934625  11.1871011  )
        19           Sb  tau(  19) = (  -0.0000000   0.5869250   2.4882201  )
        20           Sb  tau(  20) = (   0.5082919   0.2934625  16.6593956  )
        21           Sb  tau(  21) = (   0.0000000   0.0000000   8.8707405  )
        22           Sb  tau(  22) = (  -0.0000000   0.5869250   3.8939687  )
        23           Sb  tau(  23) = (   0.5082920   0.2934625  15.2536467  )
        24           Sb  tau(  24) = (  -0.0000000  -0.0000000  10.2768755  )
        25           Te  tau(  25) = (   0.0000000   0.5869250   1.1790997  )
        26           Te  tau(  26) = (   0.5082919   0.2934625  17.9685166  )
        27           Te  tau(  27) = (   0.0000000   0.0000000   7.5617715  )
        28           Te  tau(  28) = (  -0.0000000   0.5869250   5.2030883  )
        29           Te  tau(  29) = (   0.5082920   0.2934625  13.9445277  )
        30           Te  tau(  30) = (  -0.0000000  -0.0000000  11.5858439  )
        31           Te  tau(  31) = (   0.0000000   0.0000000   2.0297135  )
        32           Te  tau(  32) = (  -0.0000000  -0.0000000  17.1179028  )
        33           Te  tau(  33) = (   0.5082920   0.2934625   8.4124299  )
        34           Te  tau(  34) = (   0.5082920   0.2934625   4.3527425  )
        35           Te  tau(  35) = (  -0.0000000   0.5869250  14.7948735  )
        36           Te  tau(  36) = (  -0.0000000   0.5869250  10.7351855  )
        37           Te  tau(  37) = (   0.5082920   0.2934625   2.8811844  )
        38           Te  tau(  38) = (  -0.0000000   0.5869250  16.2664310  )
        39           Te  tau(  39) = (  -0.0000000   0.5869250   9.2635519  )
        40           Te  tau(  40) = (  -0.0000000   0.0000000   3.5008807  )
        41           Te  tau(  41) = (   0.0000000  -0.0000000  15.6467350  )
        42           Te  tau(  42) = (   0.5082919   0.2934625   9.8840641  )

   Crystallographic axes

     site n.     atom                  positions (cryst. coord.)
         1           Sb  tau(   1) = (  0.6666667  0.3333334  0.0138797  )
         2           Sb  tau(   2) = (  0.3333333  0.6666667  0.9861203  )
         3           Sb  tau(   3) = (  0.3333334  0.6666667  0.3472151  )
         4           Sb  tau(   4) = (  0.0000000  0.0000000  0.3194496  )
         5           Sb  tau(   5) = (  0.0000000  0.0000000  0.6805504  )
         6           Sb  tau(   6) = (  0.6666667  0.3333333  0.6527849  )
         7           Sb  tau(   7) = (  0.0000000  0.0000000  0.0325862  )
         8           Sb  tau(   8) = (  0.0000000  0.0000000  0.9674138  )
         9           Sb  tau(   9) = (  0.6666667  0.3333334  0.3659218  )
        10           Sb  tau(  10) = (  0.6666667  0.3333334  0.3007424  )
        11           Sb  tau(  11) = (  0.3333334  0.6666667  0.6992576  )
        12           Sb  tau(  12) = (  0.3333334  0.6666667  0.6340782  )
        13           Sb  tau(  13) = (  0.6666667  0.3333334  0.0824048  )
        14           Sb  tau(  14) = (  0.3333333  0.6666667  0.9175952  )
        15           Sb  tau(  15) = (  0.3333334  0.6666667  0.4157444  )
        16           Sb  tau(  16) = (  0.0000000  0.0000000  0.2509161  )
        17           Sb  tau(  17) = (  0.0000000  0.0000000  0.7490840  )
        18           Sb  tau(  18) = (  0.6666667  0.3333333  0.5842556  )
        19           Sb  tau(  19) = (  0.3333334  0.6666667  0.1299493  )
        20           Sb  tau(  20) = (  0.6666667  0.3333333  0.8700506  )
        21           Sb  tau(  21) = (  0.0000000  0.0000000  0.4632817  )
        22           Sb  tau(  22) = (  0.3333333  0.6666667  0.2033657  )
        23           Sb  tau(  23) = (  0.6666667  0.3333334  0.7966343  )
        24           Sb  tau(  24) = (  0.0000000  0.0000000  0.5367183  )
        25           Te  tau(  25) = (  0.3333334  0.6666667  0.0615795  )
        26           Te  tau(  26) = (  0.6666667  0.3333333  0.9384206  )
        27           Te  tau(  27) = (  0.0000000  0.0000000  0.3949197  )
        28           Te  tau(  28) = (  0.3333333  0.6666667  0.2717356  )
        29           Te  tau(  29) = (  0.6666667  0.3333334  0.7282644  )
        30           Te  tau(  30) = (  0.0000000  0.0000000  0.6050802  )
        31           Te  tau(  31) = (  0.0000000  0.0000000  0.1060035  )
        32           Te  tau(  32) = (  0.0000000  0.0000000  0.8939966  )
        33           Te  tau(  33) = (  0.6666667  0.3333334  0.4393461  )
        34           Te  tau(  34) = (  0.6666667  0.3333334  0.2273256  )
        35           Te  tau(  35) = (  0.3333334  0.6666667  0.7726744  )
        36           Te  tau(  36) = (  0.3333334  0.6666667  0.5606539  )
        37           Te  tau(  37) = (  0.6666667  0.3333334  0.1504722  )
        38           Te  tau(  38) = (  0.3333333  0.6666667  0.8495277  )
        39           Te  tau(  39) = (  0.3333334  0.6666667  0.4837966  )
        40           Te  tau(  40) = (  0.0000000  0.0000000  0.1828364  )
        41           Te  tau(  41) = (  0.0000000  0.0000000  0.8171636  )
        42           Te  tau(  42) = (  0.6666667  0.3333333  0.5162034  )

     number of k points=    28  Marzari-Vanderbilt smearing, width (Ry)=  0.0050
                       cart. coord. in units 2pi/alat
        k(    1) = (   0.0000000   0.0000000   0.0000000), wk =   0.0050000
        k(    2) = (   0.0000000   0.0000000  -0.0261129), wk =   0.0050000
        k(    3) = (   0.0000000   0.1135864   0.0000000), wk =   0.0300000
        k(    4) = (   0.0000000   0.1135864  -0.0261129), wk =   0.0300000
        k(    5) = (   0.0000000   0.2271727   0.0000000), wk =   0.0300000
        k(    6) = (   0.0000000   0.2271727  -0.0261129), wk =   0.0300000
        k(    7) = (   0.0000000   0.3407591   0.0000000), wk =   0.0300000
        k(    8) = (   0.0000000   0.3407591  -0.0261129), wk =   0.0300000
        k(    9) = (   0.0000000   0.4543454   0.0000000), wk =   0.0300000
        k(   10) = (   0.0000000   0.4543454  -0.0261129), wk =   0.0300000
        k(   11) = (   0.0000000  -0.5679318   0.0000000), wk =   0.0150000
        k(   12) = (   0.0000000  -0.5679318  -0.0261129), wk =   0.0150000
        k(   13) = (   0.0983687   0.1703795   0.0000000), wk =   0.0300000
        k(   14) = (   0.0983687   0.1703795  -0.0261129), wk =   0.0300000
        k(   15) = (   0.0983687   0.2839659   0.0000000), wk =   0.0600000
        k(   16) = (   0.0983687   0.2839659  -0.0261129), wk =   0.0600000
        k(   17) = (   0.0983687   0.3975522   0.0000000), wk =   0.0600000
        k(   18) = (   0.0983687   0.3975522  -0.0261129), wk =   0.0600000
        k(   19) = (   0.0983687   0.5111386   0.0000000), wk =   0.0600000
        k(   20) = (   0.0983687   0.5111386  -0.0261129), wk =   0.0600000
        k(   21) = (   0.1967373   0.3407591   0.0000000), wk =   0.0300000
        k(   22) = (   0.1967373   0.3407591  -0.0261129), wk =   0.0300000
        k(   23) = (   0.1967373   0.4543454   0.0000000), wk =   0.0600000
        k(   24) = (   0.1967373   0.4543454  -0.0261129), wk =   0.0600000
        k(   25) = (   0.1967373   0.5679318   0.0000000), wk =   0.0300000
        k(   26) = (   0.1967373   0.5679318  -0.0261129), wk =   0.0300000
        k(   27) = (   0.2951060   0.5111386   0.0000000), wk =   0.0300000
        k(   28) = (   0.2951060   0.5111386  -0.0261129), wk =   0.0300000

                       cryst. coord.
        k(    1) = (   0.0000000   0.0000000   0.0000000), wk =   0.0050000
        k(    2) = (   0.0000000   0.0000000  -0.5000000), wk =   0.0050000
        k(    3) = (   0.0000000   0.1000000   0.0000000), wk =   0.0300000
        k(    4) = (   0.0000000   0.1000000  -0.5000000), wk =   0.0300000
        k(    5) = (   0.0000000   0.2000000   0.0000000), wk =   0.0300000
        k(    6) = (   0.0000000   0.2000000  -0.5000000), wk =   0.0300000
        k(    7) = (   0.0000000   0.3000000   0.0000000), wk =   0.0300000
        k(    8) = (   0.0000000   0.3000000  -0.5000000), wk =   0.0300000
        k(    9) = (   0.0000000   0.4000000   0.0000000), wk =   0.0300000
        k(   10) = (   0.0000000   0.4000000  -0.5000000), wk =   0.0300000
        k(   11) = (   0.0000000  -0.5000000   0.0000000), wk =   0.0150000
        k(   12) = (   0.0000000  -0.5000000  -0.5000000), wk =   0.0150000
        k(   13) = (   0.1000000   0.1000000   0.0000000), wk =   0.0300000
        k(   14) = (   0.1000000   0.1000000  -0.5000000), wk =   0.0300000
        k(   15) = (   0.1000000   0.2000000   0.0000000), wk =   0.0600000
        k(   16) = (   0.1000000   0.2000000  -0.5000000), wk =   0.0600000
        k(   17) = (   0.1000000   0.3000000   0.0000000), wk =   0.0600000
        k(   18) = (   0.1000000   0.3000000  -0.5000000), wk =   0.0600000
        k(   19) = (   0.1000000   0.4000000   0.0000000), wk =   0.0600000
        k(   20) = (   0.1000000   0.4000000  -0.5000000), wk =   0.0600000
        k(   21) = (   0.2000000   0.2000000   0.0000000), wk =   0.0300000
        k(   22) = (   0.2000000   0.2000000  -0.5000000), wk =   0.0300000
        k(   23) = (   0.2000000   0.3000000   0.0000000), wk =   0.0600000
        k(   24) = (   0.2000000   0.3000000  -0.5000000), wk =   0.0600000
        k(   25) = (   0.2000000   0.4000000   0.0000000), wk =   0.0300000
        k(   26) = (   0.2000000   0.4000000  -0.5000000), wk =   0.0300000
        k(   27) = (   0.3000000   0.3000000   0.0000000), wk =   0.0300000
        k(   28) = (   0.3000000   0.3000000  -0.5000000), wk =   0.0300000

     Dense  grid:   603605 G-vectors     FFT dimensions: (  45,  45, 800)

     Smooth grid:   431947 G-vectors     FFT dimensions: (  40,  40, 720)

     Dynamical RAM for                 wfc:      44.82 MB

     Dynamical RAM for     wfc (w. buffer):    1299.66 MB

     Dynamical RAM for           str. fact:       1.02 MB

     Dynamical RAM for           local pot:       0.00 MB

     Dynamical RAM for          nlocal pot:      65.30 MB

     Dynamical RAM for                qrad:       6.65 MB

     Dynamical RAM for          rho,v,vnew:      14.48 MB

     Dynamical RAM for               rhoin:       4.83 MB

     Dynamical RAM for            rho*nmix:      32.72 MB

     Dynamical RAM for           G-vectors:       2.10 MB

     Dynamical RAM for          h,s,v(r/c):       2.75 MB

     Dynamical RAM for          <psi|beta>:      21.35 MB

     Dynamical RAM for                 psi:      89.63 MB

     Dynamical RAM for                hpsi:      89.63 MB

     Dynamical RAM for                spsi:      89.63 MB

     Dynamical RAM for      wfcinit/wfcrot:      76.89 MB

     Dynamical RAM for           addusdens:     324.10 MB

     Dynamical RAM for          addusforce:     348.20 MB

     Dynamical RAM for         addusstress:     321.03 MB

     Estimated static dynamical RAM per process >       1.40 GB

     Estimated max dynamical RAM per process >       1.74 GB

     Estimated total dynamical RAM >      31.33 GB

     Check: negative core charge=   -0.000011

     Initial potential from superposition of free atoms

     starting charge  407.98207, renormalised to  408.00000
     Starting wfcs are  516 randomized atomic wfcs
     Checking if some PAW data can be deallocated... 
       PAW data deallocated on    9 nodes for type:  1
       PAW data deallocated on    9 nodes for type:  2

     total cpu time spent up to now is      157.8 secs

     Self-consistent Calculation

     iteration #  1     ecut=    50.00 Ry     beta= 0.40
     Davidson diagonalization with overlap
     ethr =  1.00E-02,  avg # of iterations =  2.2

     Threshold (ethr) on eigenvalues was too large:
     Diagonalizing with lowered threshold

     Davidson diagonalization with overlap
     c_bands:  3 eigenvalues not converged
     ethr =  1.63E-04,  avg # of iterations =  7.0

     total cpu time spent up to now is     1310.4 secs

     total energy              =  -17608.14569820 Ry
     estimated scf accuracy    <       0.63789956 Ry

     iteration #  2     ecut=    50.00 Ry     beta= 0.40
     Davidson diagonalization with overlap
     c_bands:  1 eigenvalues not converged
     ethr =  1.56E-04,  avg # of iterations = 11.6

     total cpu time spent up to now is     2146.1 secs

     total energy              =  -17606.13849636 Ry
     estimated scf accuracy    <      86.07542573 Ry

     iteration #  3     ecut=    50.00 Ry     beta= 0.40
     Davidson diagonalization with overlap
     ethr =  1.56E-04,  avg # of iterations =  9.1

     total cpu time spent up to now is     2948.5 secs

     total energy              =  -17608.13515423 Ry
     estimated scf accuracy    <       3.66371993 Ry

     iteration #  4     ecut=    50.00 Ry     beta= 0.40
     Davidson diagonalization with overlap
     c_bands:  1 eigenvalues not converged
     ethr =  1.56E-04,  avg # of iterations = 12.2

     total cpu time spent up to now is     3761.7 secs

     total energy              =  -17605.33403430 Ry
     estimated scf accuracy    <    1213.85506902 Ry

     iteration #  5     ecut=    50.00 Ry     beta= 0.40
     Davidson diagonalization with overlap
     ethr =  1.56E-04,  avg # of iterations = 12.4

     total cpu time spent up to now is     4536.7 secs

     total energy              =  -17608.25705896 Ry
     estimated scf accuracy    <       1.94324540 Ry

     iteration #  6     ecut=    50.00 Ry     beta= 0.40
     Davidson diagonalization with overlap
     ethr =  1.56E-04,  avg # of iterations = 13.1

     total cpu time spent up to now is     5238.5 secs

     total energy              =  -17607.83378043 Ry
     estimated scf accuracy    <      37.57166584 Ry

     iteration #  7     ecut=    50.00 Ry     beta= 0.40
     Davidson diagonalization with overlap
     c_bands:  2 eigenvalues not converged
     c_bands:  2 eigenvalues not converged
     c_bands:  4 eigenvalues not converged
     c_bands:  4 eigenvalues not converged
     c_bands:  4 eigenvalues not converged
     c_bands:  5 eigenvalues not converged
     c_bands:  2 eigenvalues not converged
     c_bands:  1 eigenvalues not converged
     c_bands:  2 eigenvalues not converged
     c_bands:  5 eigenvalues not converged
     c_bands:  4 eigenvalues not converged
     c_bands:  1 eigenvalues not converged
     c_bands:  5 eigenvalues not converged
     ethr =  1.56E-04,  avg # of iterations = 19.0

     total cpu time spent up to now is     5953.1 secs

     total energy              =  -17608.35950788 Ry
     estimated scf accuracy    <       0.25781466 Ry

     iteration #  8     ecut=    50.00 Ry     beta= 0.40
     Davidson diagonalization with overlap
     c_bands:  4 eigenvalues not converged
     c_bands:  4 eigenvalues not converged
     ethr =  6.32E-05,  avg # of iterations =  4.6

     total cpu time spent up to now is     6463.2 secs

     total energy              =  -17608.35301378 Ry
     estimated scf accuracy    <       0.34949219 Ry

     iteration #  9     ecut=    50.00 Ry     beta= 0.40
     Davidson diagonalization with overlap
     ethr =  6.32E-05,  avg # of iterations =  1.9

     total cpu time spent up to now is     6935.3 secs

     total energy              =  -17608.35821697 Ry
     estimated scf accuracy    <       0.25674980 Ry

     iteration # 10     ecut=    50.00 Ry     beta= 0.40
     Davidson diagonalization with overlap
     ethr =  6.29E-05,  avg # of iterations =  1.3

     total cpu time spent up to now is     7379.8 secs

     total energy              =  -17608.36277414 Ry
     estimated scf accuracy    <       0.09431549 Ry

     iteration # 11     ecut=    50.00 Ry     beta= 0.40
     Davidson diagonalization with overlap
     ethr =  2.31E-05,  avg # of iterations =  2.4

     total cpu time spent up to now is     7859.0 secs

     total energy              =  -17608.36286894 Ry
     estimated scf accuracy    <       0.09730739 Ry

     iteration # 12     ecut=    50.00 Ry     beta= 0.40
     Davidson diagonalization with overlap
     ethr =  2.31E-05,  avg # of iterations =  1.7

     total cpu time spent up to now is     8318.0 secs

     total energy              =  -17608.36397587 Ry
     estimated scf accuracy    <       0.05092881 Ry

     iteration # 13     ecut=    50.00 Ry     beta= 0.40
     Davidson diagonalization with overlap
     c_bands:  5 eigenvalues not converged
     c_bands:  3 eigenvalues not converged
     ethr =  1.25E-05,  avg # of iterations =  4.6

     total cpu time spent up to now is     8834.8 secs

     total energy              =  -17608.35612972 Ry
     estimated scf accuracy    <       0.03915078 Ry

     iteration # 14     ecut=    50.00 Ry     beta= 0.40
     Davidson diagonalization with overlap
     ethr =  9.60E-06,  avg # of iterations = 14.1

     total cpu time spent up to now is     9633.8 secs

     total energy              =  -17608.27211821 Ry
     estimated scf accuracy    <      10.52591830 Ry

     iteration # 15     ecut=    50.00 Ry     beta= 0.40
     Davidson diagonalization with overlap
     ethr =  9.60E-06,  avg # of iterations = 13.6

     total cpu time spent up to now is    10414.9 secs

     total energy              =  -17608.36386966 Ry
     estimated scf accuracy    <       0.00732328 Ry

     iteration # 16     ecut=    50.00 Ry     beta= 0.40
     Davidson diagonalization with overlap
     c_bands:  2 eigenvalues not converged
     c_bands:  4 eigenvalues not converged
     c_bands:  2 eigenvalues not converged
     c_bands:  4 eigenvalues not converged
     c_bands:  5 eigenvalues not converged
     c_bands:  2 eigenvalues not converged
     c_bands:  4 eigenvalues not converged
     c_bands:  2 eigenvalues not converged
     c_bands:  4 eigenvalues not converged
     ethr =  1.79E-06,  avg # of iterations = 14.5

     total cpu time spent up to now is    11007.5 secs

     total energy              =  -17608.36270287 Ry
     estimated scf accuracy    <       0.07483369 Ry

     iteration # 17     ecut=    50.00 Ry     beta= 0.40
     Davidson diagonalization with overlap
     c_bands:  2 eigenvalues not converged
     c_bands:  2 eigenvalues not converged
     c_bands:  2 eigenvalues not converged
     ethr =  1.79E-06,  avg # of iterations =  7.7

     total cpu time spent up to now is    11535.6 secs

     total energy              =  -17608.36407841 Ry
     estimated scf accuracy    <       0.00470713 Ry

     iteration # 18     ecut=    50.00 Ry     beta= 0.40
     Davidson diagonalization with overlap
     ethr =  1.15E-06,  avg # of iterations =  1.7

     total cpu time spent up to now is    12001.6 secs

     total energy              =  -17608.36408225 Ry
     estimated scf accuracy    <       0.00118167 Ry

     iteration # 19     ecut=    50.00 Ry     beta= 0.40
     Davidson diagonalization with overlap
     ethr =  2.90E-07,  avg # of iterations =  2.2

     total cpu time spent up to now is    12464.8 secs

     total energy              =  -17608.36405699 Ry
     estimated scf accuracy    <       0.00113714 Ry

     iteration # 20     ecut=    50.00 Ry     beta= 0.40
     Davidson diagonalization with overlap
     ethr =  2.79E-07,  avg # of iterations =  2.0

     total cpu time spent up to now is    12937.0 secs

     total energy              =  -17608.36408003 Ry
     estimated scf accuracy    <       0.00022703 Ry

     iteration # 21     ecut=    50.00 Ry     beta= 0.40
     Davidson diagonalization with overlap
     ethr =  5.56E-08,  avg # of iterations =  1.4

     total cpu time spent up to now is    13384.8 secs

     total energy              =  -17608.36409192 Ry
     estimated scf accuracy    <       0.00004685 Ry

     iteration # 22     ecut=    50.00 Ry     beta= 0.40
     Davidson diagonalization with overlap
     ethr =  1.15E-08,  avg # of iterations =  2.0

     total cpu time spent up to now is    13869.1 secs

     total energy              =  -17608.36409217 Ry
     estimated scf accuracy    <       0.00002952 Ry

     iteration # 23     ecut=    50.00 Ry     beta= 0.40
     Davidson diagonalization with overlap
     ethr =  7.23E-09,  avg # of iterations =  1.5

     total cpu time spent up to now is    14325.5 secs

     total energy              =  -17608.36409218 Ry
     estimated scf accuracy    <       0.00001804 Ry

     iteration # 24     ecut=    50.00 Ry     beta= 0.40
     Davidson diagonalization with overlap
     ethr =  4.42E-09,  avg # of iterations =  1.4

     total cpu time spent up to now is    14776.3 secs

     total energy              =  -17608.36409328 Ry
     estimated scf accuracy    <       0.00000126 Ry

     iteration # 25     ecut=    50.00 Ry     beta= 0.40
     Davidson diagonalization with overlap
     c_bands:  2 eigenvalues not converged
     ethr =  3.08E-10,  avg # of iterations =  5.2

     total cpu time spent up to now is    15316.2 secs

     total energy              =  -17608.36409334 Ry
     estimated scf accuracy    <       0.00000049 Ry

     iteration # 26     ecut=    50.00 Ry     beta= 0.40
     Davidson diagonalization with overlap
     ethr =  1.21E-10,  avg # of iterations =  3.7

     total cpu time spent up to now is    15848.9 secs

     total energy              =  -17608.36409305 Ry
     estimated scf accuracy    <       0.00001565 Ry

     iteration # 27     ecut=    50.00 Ry     beta= 0.40
     Davidson diagonalization with overlap
     ethr =  1.21E-10,  avg # of iterations =  2.0

     total cpu time spent up to now is    16337.2 secs

     total energy              =  -17608.36409337 Ry
     estimated scf accuracy    <       0.00000170 Ry

     iteration # 28     ecut=    50.00 Ry     beta= 0.40
     Davidson diagonalization with overlap
     ethr =  1.21E-10,  avg # of iterations =  2.0

     total cpu time spent up to now is    16822.6 secs

     total energy              =  -17608.36409337 Ry
     estimated scf accuracy    <       0.00000042 Ry

     iteration # 29     ecut=    50.00 Ry     beta= 0.40
     Davidson diagonalization with overlap
     ethr =  1.03E-10,  avg # of iterations =  1.0

     total cpu time spent up to now is    17254.9 secs

     total energy              =  -17608.36409337 Ry
     estimated scf accuracy    <       0.00000057 Ry

     iteration # 30     ecut=    50.00 Ry     beta= 0.40
     Davidson diagonalization with overlap
     ethr =  1.03E-10,  avg # of iterations =  1.1

     total cpu time spent up to now is    17688.1 secs

     total energy              =  -17608.36409336 Ry
     estimated scf accuracy    <       0.00000022 Ry

     iteration # 31     ecut=    50.00 Ry     beta= 0.40
     Davidson diagonalization with overlap
     ethr =  5.34E-11,  avg # of iterations =  2.0

     total cpu time spent up to now is    18180.0 secs

     total energy              =  -17608.36409331 Ry
     estimated scf accuracy    <       0.00000567 Ry

     iteration # 32     ecut=    50.00 Ry     beta= 0.40
     Davidson diagonalization with overlap
     ethr =  5.34E-11,  avg # of iterations =  1.4

     total cpu time spent up to now is    18630.9 secs

     total energy              =  -17608.36409338 Ry
     estimated scf accuracy    <       0.00000003 Ry

     iteration # 33     ecut=    50.00 Ry     beta= 0.40
     Davidson diagonalization with overlap
     ethr =  6.61E-12,  avg # of iterations =  2.4

     total cpu time spent up to now is    19129.9 secs

     End of self-consistent calculation

          k = 0.0000 0.0000 0.0000 ( 54001 PWs)   bands (ev):

   -30.4719 -30.4719 -30.4717 -30.4717 -30.4715 -30.4715 -30.4710 -30.4710
   -30.4710 -30.4710 -30.4709 -30.4709 -30.4698 -30.4698 -30.4696 -30.4696
   -30.4694 -30.4694 -30.4689 -30.4689 -30.4689 -30.4689 -30.4689 -30.4689
   -30.4334 -30.4334 -30.4332 -30.4332 -30.4323 -30.4323 -30.4321 -30.4321
   -30.4317 -30.4317 -30.4306 -30.4306 -30.4298 -30.4298 -30.4297 -30.4297
   -30.4279 -30.4279 -30.4273 -30.4273 -30.4271 -30.4271 -30.4254 -30.4254
   -30.2951 -30.2951 -30.2947 -30.2947 -30.2944 -30.2944 -30.2943 -30.2943
   -30.2942 -30.2942 -30.2942 -30.2942 -30.2740 -30.2740 -30.2735 -30.2735
   -30.2732 -30.2732 -30.2732 -30.2732 -30.2730 -30.2730 -30.2730 -30.2730
   -29.0135 -29.0135 -29.0134 -29.0134 -29.0132 -29.0132 -29.0127 -29.0127
   -29.0126 -29.0126 -29.0126 -29.0126 -29.0126 -29.0126 -29.0124 -29.0124
   -29.0122 -29.0122 -29.0117 -29.0117 -29.0117 -29.0117 -29.0116 -29.0116
   -29.0108 -29.0108 -29.0106 -29.0106 -29.0104 -29.0104 -29.0099 -29.0099
   -29.0099 -29.0099 -29.0099 -29.0099 -28.9760 -28.9760 -28.9758 -28.9758
   -28.9754 -28.9754 -28.9752 -28.9752 -28.9742 -28.9742 -28.9739 -28.9739
   -28.9738 -28.9738 -28.9737 -28.9737 -28.9721 -28.9721 -28.9695 -28.9695
   -28.9694 -28.9694 -28.9690 -28.9690 -28.9689 -28.9689 -28.9687 -28.9687
   -28.9685 -28.9685 -28.9676 -28.9676 -28.9672 -28.9672 -28.9668 -28.9668
   -28.8384 -28.8384 -28.8379 -28.8379 -28.8376 -28.8376 -28.8376 -28.8376
   -28.8375 -28.8375 -28.8374 -28.8374 -28.8295 -28.8295 -28.8291 -28.8291
   -28.8287 -28.8287 -28.8287 -28.8287 -28.8286 -28.8286 -28.8285 -28.8285
   -28.8108 -28.8108 -28.8104 -28.8104 -28.8100 -28.8100 -28.8100 -28.8100
   -28.8098 -28.8098 -28.8098 -28.8098  -5.6033  -5.6033  -5.6021  -5.6021
    -5.6019  -5.6019  -5.5136  -5.5136  -5.5134  -5.5134  -5.5104  -5.5104
    -5.1770  -5.1770  -5.1669  -5.1669  -5.1663  -5.1663  -4.9466  -4.9466
    -4.9457  -4.9457  -4.9276  -4.9276  -4.4203  -4.4203  -4.3595  -4.3595
    -4.3592  -4.3592  -4.1488  -4.1488  -4.1482  -4.1482  -3.9695  -3.9695
    -3.9532  -3.9532  -3.7957  -3.7957  -3.7956  -3.7956  -3.4343  -3.4343
    -3.4341  -3.4341  -3.4015  -3.4015  -1.4339  -1.4339  -1.3674  -1.3674
    -1.3665  -1.3665  -1.1165  -1.1165  -1.1163  -1.1163  -0.9994  -0.9994
    -0.3071  -0.3071  -0.1428  -0.1428  -0.1424  -0.1424   0.2165   0.2165
     0.2167   0.2167   0.4740   0.4740   0.5913   0.5913   0.7473   0.7473
     0.7479   0.7479   1.9313   1.9313   1.9315   1.9315   1.9434   1.9434
     4.4389   4.4389   4.4696   4.4696   4.4706   4.4706   4.7225   4.7225
     4.7227   4.7227   4.7851   4.7851   4.9365   4.9365   4.9818   4.9818
     4.9823   4.9823   5.1612   5.1612   5.1616   5.1616   5.1861   5.1861
     5.2454   5.2454   5.2675   5.2675   5.2679   5.2679   5.4161   5.4161
     5.4164   5.4164   5.5014   5.5014   5.5241   5.5241   5.5426   5.5426
     5.5427   5.5427   5.5826   5.5826   5.5827   5.5827   5.5829   5.5829
     5.5882   5.5882   5.6195   5.6195   5.6198   5.6198   5.6199   5.6199
     5.6374   5.6374   5.6375   5.6375   5.7086   5.7086   5.7300   5.7300
     5.7303   5.7303   5.7310   5.7310   5.7611   5.7611   5.7614   5.7614
     5.8413   5.8413   5.8421   5.8421   5.8424   5.8424   5.9320   5.9320
     5.9324   5.9324   5.9461   5.9461   6.1149   6.1149   6.1154   6.1154
     6.1729   6.1729   6.1830   6.1830   6.1834   6.1834   6.2310   6.2310
     6.2359   6.2359   6.2361   6.2361   6.2584   6.2584   6.2588   6.2588
     6.3468   6.3468   6.3470   6.3470   6.3644   6.3644   6.3690   6.3690
     6.3691   6.3691   6.4893   6.4893   6.5096   6.5096   6.5101   6.5101
     6.7164   6.7164   6.7169   6.7169   6.7263   6.7263   6.9551   6.9551
     6.9555   6.9555   6.9894   6.9894   7.1358   7.1358   7.1598   7.1598
     7.1600   7.1600   7.1971   7.1971   7.2174   7.2174   7.2177   7.2177
     7.5231   7.5231   7.5236   7.5236   7.5545   7.5545   7.7057   7.7057
     7.7061   7.7061   7.7151   7.7151   7.9657   7.9657   8.0091   8.0091
     8.0094   8.0094   8.0245   8.0245   8.0303   8.0303   8.0310   8.0310
     8.1228   8.1228   8.1777   8.1777   8.1780   8.1780   8.1951   8.1951
     8.1954   8.1954   8.2587   8.2587   8.4028   8.4028   8.4034   8.4034
     8.4951   8.4951   8.6362   8.6362   8.6368   8.6368   8.6555   8.6555
     8.7325   8.7325   8.7420   8.7420   8.7424   8.7424   8.7431   8.7431
     8.7829   8.7829   8.8404   8.8404   8.8406   8.8406   8.8593   8.8593
     8.8594   8.8594   9.1951   9.1951   9.1958   9.1958   9.2736   9.2736
     9.2737   9.2737   9.2879   9.2879   9.3915   9.3915   9.3939   9.3941
     9.4097   9.4097

     occupation numbers 
     1.0000   1.0000   1.0000   1.0000   1.0000   1.0000   1.0000   1.0000
     1.0000   1.0000   1.0000   1.0000   1.0000   1.0000   1.0000   1.0000
     1.0000   1.0000   1.0000   1.0000   1.0000   1.0000   1.0000   1.0000
     1.0000   1.0000   1.0000   1.0000   1.0000   1.0000   1.0000   1.0000
     1.0000   1.0000   1.0000   1.0000   1.0000   1.0000   1.0000   1.0000
     1.0000   1.0000   1.0000   1.0000   1.0000   1.0000   1.0000   1.0000
     1.0000   1.0000   1.0000   1.0000   1.0000   1.0000   1.0000   1.0000
     1.0000   1.0000   1.0000   1.0000   1.0000   1.0000   1.0000   1.0000
     1.0000   1.0000   1.0000   1.0000   1.0000   1.0000   1.0000   1.0000
     1.0000   1.0000   1.0000   1.0000   1.0000   1.0000   1.0000   1.0000
     1.0000   1.0000   1.0000   1.0000   1.0000   1.0000   1.0000   1.0000
     1.0000   1.0000   1.0000   1.0000   1.0000   1.0000   1.0000   1.0000
     1.0000   1.0000   1.0000   1.0000   1.0000   1.0000   1.0000   1.0000
     1.0000   1.0000   1.0000   1.0000   1.0000   1.0000   1.0000   1.0000
     1.0000   1.0000   1.0000   1.0000   1.0000   1.0000   1.0000   1.0000
     1.0000   1.0000   1.0000   1.0000   1.0000   1.0000   1.0000   1.0000
     1.0000   1.0000   1.0000   1.0000   1.0000   1.0000   1.0000   1.0000
     1.0000   1.0000   1.0000   1.0000   1.0000   1.0000   1.0000   1.0000
     1.0000   1.0000   1.0000   1.0000   1.0000   1.0000   1.0000   1.0000
     1.0000   1.0000   1.0000   1.0000   1.0000   1.0000   1.0000   1.0000
     1.0000   1.0000   1.0000   1.0000   1.0000   1.0000   1.0000   1.0000
     1.0000   1.0000   1.0000   1.0000   1.0000   1.0000   1.0000   1.0000
     1.0000   1.0000   1.0000   1.0000   1.0000   1.0000   1.0000   1.0000
     1.0000   1.0000   1.0000   1.0000   1.0000   1.0000   1.0000   1.0000
     1.0000   1.0000   1.0000   1.0000   1.0000   1.0000   1.0000   1.0000
     1.0000   1.0000   1.0000   1.0000   1.0000   1.0000   1.0000   1.0000
     1.0000   1.0000   1.0000   1.0000   1.0000   1.0000   1.0000   1.0000
     1.0000   1.0000   1.0000   1.0000   1.0000   1.0000   1.0000   1.0000
     1.0000   1.0000   1.0000   1.0000   1.0000   1.0000   1.0000   1.0000
     1.0000   1.0000   1.0000   1.0000   1.0000   1.0000   1.0000   1.0000
     1.0000   1.0000   1.0000   1.0000   1.0000   1.0000   1.0000   1.0000
     1.0000   1.0000   1.0000   1.0000   1.0000   1.0000   1.0000   1.0000
     1.0000   1.0000   1.0000   1.0000   1.0000   1.0000   1.0000   1.0000
     1.0000   1.0000   1.0000   1.0000   1.0000   1.0000   1.0000   1.0000
     1.0000   1.0000   1.0000   1.0000   1.0000   1.0000   1.0000   1.0000
     1.0000   1.0000   1.0000   1.0000   1.0000   1.0000   1.0000   1.0000
     1.0000   1.0000   1.0000   1.0000   1.0000   1.0000   1.0000   1.0000
     1.0000   1.0000   1.0000   1.0000   1.0000   1.0000   1.0000   1.0000
     1.0000   1.0000   1.0000   1.0000   1.0000   1.0000   1.0000   1.0000
     1.0000   1.0000   1.0000   1.0000   1.0000   1.0000   1.0000   1.0000
     1.0000   1.0000   1.0000   1.0000   1.0000   1.0000   1.0000   1.0000
     1.0000   1.0000   1.0000   1.0000   1.0000   1.0000   1.0000   1.0000
     1.0000   1.0000   1.0000   1.0000   1.0000   1.0000   1.0000   1.0000
     1.0000   1.0000   1.0000   1.0000   1.0000   1.0000   1.0000   1.0000
     1.0000   1.0000   1.0000   1.0000   1.0000   1.0000   1.0000   1.0000
     1.0000   1.0000   1.0000   1.0000   1.0000   1.0000   1.0000   1.0000
     1.0000   1.0000   1.0000   1.0000   1.0000   1.0000   1.0000   1.0000
     1.0000   1.0000   1.0000   1.0000   1.0000   1.0000   1.0000   1.0000
     1.0000   1.0000   1.0000   1.0000   1.0000   1.0000   1.0000   1.0000
     1.0000   1.0000   1.0000   1.0000   1.0000   1.0000   1.0000   1.0000
     1.0000   1.0000   1.0000   1.0000   1.0000   1.0000   1.0000   1.0000
     1.0594   1.0594   1.0581   1.0581   0.8788   0.8788   0.0032   0.0032
     0.0031   0.0031   0.0016   0.0016   0.0000   0.0000   0.0000   0.0000
     0.0000   0.0000   0.0000   0.0000   0.0000   0.0000   0.0000   0.0000
     0.0000   0.0000   0.0000   0.0000   0.0000   0.0000   0.0000   0.0000
     0.0000   0.0000   0.0000   0.0000   0.0000   0.0000   0.0000   0.0000
     0.0000   0.0000   0.0000   0.0000   0.0000   0.0000   0.0000   0.0000
     0.0000   0.0000   0.0000   0.0000   0.0000   0.0000   0.0000   0.0000
     0.0000   0.0000   0.0000   0.0000   0.0000   0.0000   0.0000   0.0000
     0.0000   0.0000   0.0000   0.0000   0.0000   0.0000   0.0000   0.0000
     0.0000   0.0000   0.0000   0.0000   0.0000   0.0000   0.0000   0.0000
     0.0000   0.0000

          k = 0.0000 0.0000-0.0261 ( 54000 PWs)   bands (ev):

   -30.4719 -30.4719 -30.4717 -30.4717 -30.4715 -30.4715 -30.4710 -30.4710
   -30.4710 -30.4710 -30.4709 -30.4709 -30.4698 -30.4698 -30.4696 -30.4696
   -30.4694 -30.4694 -30.4689 -30.4689 -30.4689 -30.4689 -30.4689 -30.4689
   -30.4334 -30.4334 -30.4332 -30.4332 -30.4323 -30.4323 -30.4321 -30.4321
   -30.4317 -30.4317 -30.4306 -30.4306 -30.4298 -30.4298 -30.4297 -30.4297
   -30.4279 -30.4279 -30.4273 -30.4273 -30.4271 -30.4271 -30.4254 -30.4254
   -30.2951 -30.2951 -30.2947 -30.2947 -30.2944 -30.2944 -30.2943 -30.2943
   -30.2942 -30.2942 -30.2942 -30.2942 -30.2740 -30.2740 -30.2735 -30.2735
   -30.2732 -30.2732 -30.2732 -30.2732 -30.2730 -30.2730 -30.2730 -30.2730
   -29.0135 -29.0135 -29.0134 -29.0134 -29.0132 -29.0132 -29.0127 -29.0127
   -29.0126 -29.0126 -29.0126 -29.0126 -29.0126 -29.0126 -29.0124 -29.0124
   -29.0122 -29.0122 -29.0117 -29.0117 -29.0117 -29.0117 -29.0116 -29.0116
   -29.0108 -29.0108 -29.0106 -29.0106 -29.0104 -29.0104 -29.0099 -29.0099
   -29.0099 -29.0099 -29.0099 -29.0099 -28.9760 -28.9760 -28.9758 -28.9758
   -28.9754 -28.9754 -28.9752 -28.9752 -28.9742 -28.9742 -28.9739 -28.9739
   -28.9738 -28.9738 -28.9737 -28.9737 -28.9721 -28.9721 -28.9695 -28.9695
   -28.9694 -28.9694 -28.9690 -28.9690 -28.9689 -28.9689 -28.9687 -28.9687
   -28.9685 -28.9685 -28.9676 -28.9676 -28.9672 -28.9672 -28.9668 -28.9668
   -28.8384 -28.8384 -28.8379 -28.8379 -28.8376 -28.8376 -28.8376 -28.8376
   -28.8375 -28.8375 -28.8374 -28.8374 -28.8295 -28.8295 -28.8291 -28.8291
   -28.8287 -28.8287 -28.8287 -28.8287 -28.8286 -28.8286 -28.8285 -28.8285
   -28.8108 -28.8108 -28.8104 -28.8104 -28.8100 -28.8100 -28.8100 -28.8100
   -28.8098 -28.8098 -28.8098 -28.8098  -5.6030  -5.6030  -5.6028  -5.6028
    -5.6016  -5.6016  -5.5145  -5.5145  -5.5116  -5.5116  -5.5113  -5.5113
    -5.1740  -5.1740  -5.1733  -5.1733  -5.1629  -5.1629  -4.9524  -4.9524
    -4.9342  -4.9342  -4.9333  -4.9333  -4.4034  -4.4034  -4.4027  -4.4027
    -4.3253  -4.3253  -4.1973  -4.1973  -4.0589  -4.0589  -4.0589  -4.0589
    -3.8687  -3.8687  -3.8684  -3.8684  -3.7658  -3.7658  -3.4472  -3.4472
    -3.4117  -3.4117  -3.4115  -3.4115  -1.4159  -1.4159  -1.4147  -1.4147
    -1.3293  -1.3293  -1.1679  -1.1679  -1.0365  -1.0365  -1.0363  -1.0363
    -0.2591  -0.2591  -0.2582  -0.2582  -0.0440  -0.0440   0.1076   0.1076
     0.3705   0.3705   0.3706   0.3706   0.6690   0.6690   0.6692   0.6692
     0.7764   0.7764   1.9273   1.9273   1.9394   1.9394   1.9396   1.9396
     4.4479   4.4479   4.4489   4.4489   4.4830   4.4830   4.7023   4.7023
     4.7629   4.7629   4.7630   4.7630   4.9532   4.9532   4.9538   4.9538
     4.9953   4.9953   5.1532   5.1532   5.1771   5.1771   5.1778   5.1778
     5.2532   5.2532   5.2533   5.2533   5.2753   5.2753   5.3982   5.3982
     5.4603   5.4603   5.4604   5.4604   5.5378   5.5378   5.5380   5.5380
     5.5439   5.5439   5.5826   5.5826   5.5827   5.5827   5.5829   5.5829
     5.6132   5.6132   5.6133   5.6133   5.6196   5.6196   5.6196   5.6196
     5.6200   5.6200   5.6426   5.6426   5.7205   5.7205   5.7206   5.7206
     5.7300   5.7300   5.7304   5.7304   5.7309   5.7309   5.7926   5.7926
     5.8413   5.8413   5.8421   5.8421   5.8425   5.8425   5.9181   5.9181
     5.9436   5.9436   5.9441   5.9441   6.0945   6.0945   6.1586   6.1586
     6.1590   6.1590   6.1794   6.1794   6.2013   6.2013   6.2017   6.2017
     6.2325   6.2325   6.2327   6.2327   6.2379   6.2379   6.3223   6.3223
     6.3223   6.3223   6.3415   6.3415   6.3582   6.3582   6.3583   6.3583
     6.3864   6.3864   6.4962   6.4962   6.4967   6.4967   6.5163   6.5163
     6.7132   6.7132   6.7230   6.7230   6.7234   6.7234   6.9454   6.9454
     6.9769   6.9769   6.9772   6.9772   7.1450   7.1450   7.1451   7.1451
     7.1661   7.1661   7.2033   7.2033   7.2037   7.2037   7.2252   7.2252
     7.5130   7.5130   7.5437   7.5437   7.5443   7.5443   7.7024   7.7024
     7.7121   7.7121   7.7124   7.7124   7.9773   7.9773   7.9781   7.9781
     8.0252   8.0252   8.0261   8.0261   8.0339   8.0339   8.0339   8.0339
     8.1429   8.1429   8.1446   8.1446   8.1453   8.1453   8.2301   8.2301
     8.2328   8.2328   8.2330   8.2330   8.3642   8.3642   8.4644   8.4644
     8.4645   8.4645   8.6255   8.6255   8.6550   8.6550   8.6555   8.6555
     8.7304   8.7304   8.7305   8.7305   8.7511   8.7511   8.7655   8.7655
     8.7663   8.7663   8.8172   8.8172   8.8173   8.8173   8.8771   8.8771
     8.8889   8.8889   9.1364   9.1364   9.2669   9.2669   9.2840   9.2840
     9.2841   9.2842   9.3075   9.3075   9.3077   9.3077   9.3802   9.3804
     9.4316   9.4318

     occupation numbers 
     1.0000   1.0000   1.0000   1.0000   1.0000   1.0000   1.0000   1.0000
     1.0000   1.0000   1.0000   1.0000   1.0000   1.0000   1.0000   1.0000
     1.0000   1.0000   1.0000   1.0000   1.0000   1.0000   1.0000   1.0000
     1.0000   1.0000   1.0000   1.0000   1.0000   1.0000   1.0000   1.0000
     1.0000   1.0000   1.0000   1.0000   1.0000   1.0000   1.0000   1.0000
     1.0000   1.0000   1.0000   1.0000   1.0000   1.0000   1.0000   1.0000
     1.0000   1.0000   1.0000   1.0000   1.0000   1.0000   1.0000   1.0000
     1.0000   1.0000   1.0000   1.0000   1.0000   1.0000   1.0000   1.0000
     1.0000   1.0000   1.0000   1.0000   1.0000   1.0000   1.0000   1.0000
     1.0000   1.0000   1.0000   1.0000   1.0000   1.0000   1.0000   1.0000
     1.0000   1.0000   1.0000   1.0000   1.0000   1.0000   1.0000   1.0000
     1.0000   1.0000   1.0000   1.0000   1.0000   1.0000   1.0000   1.0000
     1.0000   1.0000   1.0000   1.0000   1.0000   1.0000   1.0000   1.0000
     1.0000   1.0000   1.0000   1.0000   1.0000   1.0000   1.0000   1.0000
     1.0000   1.0000   1.0000   1.0000   1.0000   1.0000   1.0000   1.0000
     1.0000   1.0000   1.0000   1.0000   1.0000   1.0000   1.0000   1.0000
     1.0000   1.0000   1.0000   1.0000   1.0000   1.0000   1.0000   1.0000
     1.0000   1.0000   1.0000   1.0000   1.0000   1.0000   1.0000   1.0000
     1.0000   1.0000   1.0000   1.0000   1.0000   1.0000   1.0000   1.0000
     1.0000   1.0000   1.0000   1.0000   1.0000   1.0000   1.0000   1.0000
     1.0000   1.0000   1.0000   1.0000   1.0000   1.0000   1.0000   1.0000
     1.0000   1.0000   1.0000   1.0000   1.0000   1.0000   1.0000   1.0000
     1.0000   1.0000   1.0000   1.0000   1.0000   1.0000   1.0000   1.0000
     1.0000   1.0000   1.0000   1.0000   1.0000   1.0000   1.0000   1.0000
     1.0000   1.0000   1.0000   1.0000   1.0000   1.0000   1.0000   1.0000
     1.0000   1.0000   1.0000   1.0000   1.0000   1.0000   1.0000   1.0000
     1.0000   1.0000   1.0000   1.0000   1.0000   1.0000   1.0000   1.0000
     1.0000   1.0000   1.0000   1.0000   1.0000   1.0000   1.0000   1.0000
     1.0000   1.0000   1.0000   1.0000   1.0000   1.0000   1.0000   1.0000
     1.0000   1.0000   1.0000   1.0000   1.0000   1.0000   1.0000   1.0000
     1.0000   1.0000   1.0000   1.0000   1.0000   1.0000   1.0000   1.0000
     1.0000   1.0000   1.0000   1.0000   1.0000   1.0000   1.0000   1.0000
     1.0000   1.0000   1.0000   1.0000   1.0000   1.0000   1.0000   1.0000
     1.0000   1.0000   1.0000   1.0000   1.0000   1.0000   1.0000   1.0000
     1.0000   1.0000   1.0000   1.0000   1.0000   1.0000   1.0000   1.0000
     1.0000   1.0000   1.0000   1.0000   1.0000   1.0000   1.0000   1.0000
     1.0000   1.0000   1.0000   1.0000   1.0000   1.0000   1.0000   1.0000
     1.0000   1.0000   1.0000   1.0000   1.0000   1.0000   1.0000   1.0000
     1.0000   1.0000   1.0000   1.0000   1.0000   1.0000   1.0000   1.0000
     1.0000   1.0000   1.0000   1.0000   1.0000   1.0000   1.0000   1.0000
     1.0000   1.0000   1.0000   1.0000   1.0000   1.0000   1.0000   1.0000
     1.0000   1.0000   1.0000   1.0000   1.0000   1.0000   1.0000   1.0000
     1.0000   1.0000   1.0000   1.0000   1.0000   1.0000   1.0000   1.0000
     1.0000   1.0000   1.0000   1.0000   1.0000   1.0000   1.0000   1.0000
     1.0000   1.0000   1.0000   1.0000   1.0000   1.0000   1.0000   1.0000
     1.0000   1.0000   1.0000   1.0000   1.0000   1.0000   1.0000   1.0000
     1.0000   1.0000   1.0000   1.0000   1.0000   1.0000   1.0000   1.0000
     1.0000   1.0000   1.0000   1.0000   1.0000   1.0000   1.0000   1.0000
     1.0000   1.0000   1.0000   1.0000   1.0000   1.0000   1.0000   1.0000
     1.0000   1.0000   1.0000   1.0000   1.0000   1.0000   1.0000   1.0000
     1.0000   1.0000   1.0000   1.0000   1.0000   1.0000   1.0000   1.0000
     1.0786   1.0786   0.9621   0.9621   0.9583   0.9583   0.0039   0.0039
     0.0020   0.0020   0.0020   0.0020   0.0000   0.0000   0.0000   0.0000
     0.0000   0.0000   0.0000   0.0000   0.0000   0.0000   0.0000   0.0000
     0.0000   0.0000   0.0000   0.0000   0.0000   0.0000   0.0000   0.0000
     0.0000   0.0000   0.0000   0.0000   0.0000   0.0000   0.0000   0.0000
     0.0000   0.0000   0.0000   0.0000   0.0000   0.0000   0.0000   0.0000
     0.0000   0.0000   0.0000   0.0000   0.0000   0.0000   0.0000   0.0000
     0.0000   0.0000   0.0000   0.0000   0.0000   0.0000   0.0000   0.0000
     0.0000   0.0000   0.0000   0.0000   0.0000   0.0000   0.0000   0.0000
     0.0000   0.0000   0.0000   0.0000   0.0000   0.0000   0.0000   0.0000
     0.0000   0.0000

          k = 0.0000 0.1136 0.0000 ( 53938 PWs)   bands (ev):

   -30.4719 -30.4719 -30.4717 -30.4717 -30.4715 -30.4715 -30.4710 -30.4710
   -30.4710 -30.4710 -30.4710 -30.4709 -30.4697 -30.4697 -30.4695 -30.4695
   -30.4694 -30.4694 -30.4689 -30.4689 -30.4689 -30.4689 -30.4688 -30.4688
   -30.4334 -30.4334 -30.4332 -30.4332 -30.4323 -30.4323 -30.4321 -30.4321
   -30.4316 -30.4316 -30.4306 -30.4306 -30.4298 -30.4298 -30.4296 -30.4296
   -30.4278 -30.4278 -30.4273 -30.4273 -30.4271 -30.4271 -30.4254 -30.4254
   -30.2951 -30.2951 -30.2947 -30.2947 -30.2944 -30.2944 -30.2943 -30.2943
   -30.2942 -30.2942 -30.2942 -30.2942 -30.2739 -30.2739 -30.2735 -30.2735
   -30.2731 -30.2731 -30.2731 -30.2731 -30.2730 -30.2730 -30.2730 -30.2730
   -29.0135 -29.0135 -29.0133 -29.0133 -29.0132 -29.0132 -29.0127 -29.0127
   -29.0126 -29.0126 -29.0126 -29.0126 -29.0126 -29.0126 -29.0124 -29.0124
   -29.0122 -29.0122 -29.0117 -29.0117 -29.0117 -29.0117 -29.0117 -29.0117
   -29.0107 -29.0107 -29.0105 -29.0105 -29.0104 -29.0104 -29.0099 -29.0099
   -29.0098 -29.0098 -29.0098 -29.0098 -28.9759 -28.9759 -28.9758 -28.9757
   -28.9753 -28.9752 -28.9751 -28.9750 -28.9742 -28.9742 -28.9739 -28.9739
   -28.9737 -28.9737 -28.9736 -28.9735 -28.9720 -28.9720 -28.9698 -28.9698
   -28.9697 -28.9696 -28.9689 -28.9689 -28.9688 -28.9687 -28.9686 -28.9686
   -28.9685 -28.9684 -28.9679 -28.9679 -28.9670 -28.9670 -28.9667 -28.9667
   -28.8384 -28.8384 -28.8379 -28.8379 -28.8376 -28.8376 -28.8376 -28.8375
   -28.8374 -28.8374 -28.8374 -28.8374 -28.8295 -28.8295 -28.8291 -28.8291
   -28.8287 -28.8287 -28.8287 -28.8287 -28.8286 -28.8286 -28.8286 -28.8286
   -28.8107 -28.8107 -28.8103 -28.8103 -28.8099 -28.8099 -28.8099 -28.8099
   -28.8098 -28.8098 -28.8098 -28.8098  -5.5169  -5.5169  -5.5157  -5.5157
    -5.5156  -5.5156  -5.4276  -5.4276  -5.4273  -5.4273  -5.4245  -5.4245
    -5.0963  -5.0963  -5.0869  -5.0869  -5.0862  -5.0862  -4.8671  -4.8671
    -4.8663  -4.8663  -4.8493  -4.8493  -4.3361  -4.3361  -4.2751  -4.2751
    -4.2737  -4.2737  -4.0848  -4.0848  -4.0826  -4.0826  -3.9085  -3.9085
    -3.8915  -3.8915  -3.7444  -3.7444  -3.7427  -3.7427  -3.3591  -3.3591
    -3.3583  -3.3583  -3.3307  -3.3307  -1.4122  -1.4122  -1.3539  -1.3539
    -1.3493  -1.3493  -1.1207  -1.1207  -1.1134  -1.1134  -1.0153  -1.0153
    -0.3250  -0.3250  -0.1901  -0.1901  -0.1708  -0.1708   0.1013   0.1013
     0.1267   0.1267   0.3150   0.3150   0.4660   0.4660   0.5657   0.5657
     0.5758   0.5758   1.7201   1.7201   1.7215   1.7215   1.7253   1.7253
     4.2858   4.2859   4.2866   4.2866   4.2880   4.2880   4.4157   4.4158
     4.4169   4.4169   4.4180   4.4180   4.4509   4.4509   4.4535   4.4535
     4.4567   4.4567   4.5511   4.5513   4.5541   4.5543   4.5596   4.5597
     4.7764   4.7766   4.7779   4.7781   4.7792   4.7793   4.9640   4.9640
     4.9679   4.9680   4.9753   4.9754   5.0409   5.0410   5.0524   5.0525
     5.0526   5.0526   5.2016   5.2017   5.2083   5.2083   5.2154   5.2155
     5.2758   5.2758   5.2773   5.2773   5.3032   5.3032   5.3160   5.3160
     5.3314   5.3314   5.3490   5.3490   5.4340   5.4341   5.4471   5.4472
     5.4715   5.4716   5.5155   5.5156   5.5320   5.5320   5.5473   5.5474
     5.6722   5.6723   5.6873   5.6874   5.7068   5.7068   5.8348   5.8349
     5.8588   5.8588   5.9023   5.9023   5.9351   5.9351   5.9824   5.9824
     6.0129   6.0129   6.0716   6.0716   6.1369   6.1369   6.1426   6.1426
     6.1672   6.1673   6.1964   6.1964   6.2293   6.2293   6.3914   6.3914
     6.4254   6.4254   6.4406   6.4406   6.4430   6.4430   6.5040   6.5040
     6.5361   6.5361   6.5943   6.5943   6.6214   6.6214   6.7005   6.7005
     6.7534   6.7535   6.7877   6.7877   6.7921   6.7921   6.9097   6.9097
     6.9774   6.9774   7.0712   7.0712   7.2110   7.2110   7.2597   7.2598
     7.3009   7.3010   7.4520   7.4520   7.4892   7.4892   7.5354   7.5354
     7.7254   7.7255   7.7479   7.7480   7.7825   7.7825   7.9021   7.9021
     7.9290   7.9291   7.9636   7.9636   8.0314   8.0315   8.0770   8.0770
     8.1052   8.1052   8.1197   8.1197   8.1849   8.1850   8.2009   8.2009
     8.2503   8.2504   8.3053   8.3053   8.3120   8.3121   8.3523   8.3523
     8.3645   8.3645   8.4339   8.4339   8.4550   8.4550   8.4812   8.4813
     8.5331   8.5332   8.7434   8.7435   8.7662   8.7662   8.8300   8.8300
     8.8616   8.8616   8.8790   8.8791   8.8932   8.8932   8.9894   8.9894
     9.0535   9.0535   9.0618   9.0619   9.2393   9.2393   9.2596   9.2597
     9.2642   9.2642   9.4433   9.4433   9.4721   9.4721   9.5304   9.5305
     9.5703   9.5703   9.5853   9.5853   9.5975   9.5975   9.6635   9.6636
     9.7083   9.7084

     occupation numbers 
     1.0000   1.0000   1.0000   1.0000   1.0000   1.0000   1.0000   1.0000
     1.0000   1.0000   1.0000   1.0000   1.0000   1.0000   1.0000   1.0000
     1.0000   1.0000   1.0000   1.0000   1.0000   1.0000   1.0000   1.0000
     1.0000   1.0000   1.0000   1.0000   1.0000   1.0000   1.0000   1.0000
     1.0000   1.0000   1.0000   1.0000   1.0000   1.0000   1.0000   1.0000
     1.0000   1.0000   1.0000   1.0000   1.0000   1.0000   1.0000   1.0000
     1.0000   1.0000   1.0000   1.0000   1.0000   1.0000   1.0000   1.0000
     1.0000   1.0000   1.0000   1.0000   1.0000   1.0000   1.0000   1.0000
     1.0000   1.0000   1.0000   1.0000   1.0000   1.0000   1.0000   1.0000
     1.0000   1.0000   1.0000   1.0000   1.0000   1.0000   1.0000   1.0000
     1.0000   1.0000   1.0000   1.0000   1.0000   1.0000   1.0000   1.0000
     1.0000   1.0000   1.0000   1.0000   1.0000   1.0000   1.0000   1.0000
     1.0000   1.0000   1.0000   1.0000   1.0000   1.0000   1.0000   1.0000
     1.0000   1.0000   1.0000   1.0000   1.0000   1.0000   1.0000   1.0000
     1.0000   1.0000   1.0000   1.0000   1.0000   1.0000   1.0000   1.0000
     1.0000   1.0000   1.0000   1.0000   1.0000   1.0000   1.0000   1.0000
     1.0000   1.0000   1.0000   1.0000   1.0000   1.0000   1.0000   1.0000
     1.0000   1.0000   1.0000   1.0000   1.0000   1.0000   1.0000   1.0000
     1.0000   1.0000   1.0000   1.0000   1.0000   1.0000   1.0000   1.0000
     1.0000   1.0000   1.0000   1.0000   1.0000   1.0000   1.0000   1.0000
     1.0000   1.0000   1.0000   1.0000   1.0000   1.0000   1.0000   1.0000
     1.0000   1.0000   1.0000   1.0000   1.0000   1.0000   1.0000   1.0000
     1.0000   1.0000   1.0000   1.0000   1.0000   1.0000   1.0000   1.0000
     1.0000   1.0000   1.0000   1.0000   1.0000   1.0000   1.0000   1.0000
     1.0000   1.0000   1.0000   1.0000   1.0000   1.0000   1.0000   1.0000
     1.0000   1.0000   1.0000   1.0000   1.0000   1.0000   1.0000   1.0000
     1.0000   1.0000   1.0000   1.0000   1.0000   1.0000   1.0000   1.0000
     1.0000   1.0000   1.0000   1.0000   1.0000   1.0000   1.0000   1.0000
     1.0000   1.0000   1.0000   1.0000   1.0000   1.0000   1.0000   1.0000
     1.0000   1.0000   1.0000   1.0000   1.0000   1.0000   1.0000   1.0000
     1.0000   1.0000   1.0000   1.0000   1.0000   1.0000   1.0000   1.0000
     1.0000   1.0000   1.0000   1.0000   1.0000   1.0000   1.0000   1.0000
     1.0000   1.0000   1.0000   1.0000   1.0000   1.0000   1.0000   1.0000
     1.0000   1.0000   1.0000   1.0000   1.0000   1.0000   1.0000   1.0000
     1.0000   1.0000   1.0000   1.0000   1.0000   1.0000   1.0000   1.0000
     1.0000   1.0000   1.0000   1.0000   1.0000   1.0000   1.0000   1.0000
     1.0000   1.0000   1.0000   1.0000   1.0000   1.0000   1.0000   1.0000
     1.0000   1.0000   1.0000   1.0000   1.0000   1.0000   1.0000   1.0000
     1.0000   1.0000   1.0000   1.0000   1.0000   1.0000   1.0000   1.0000
     1.0000   1.0000   1.0000   1.0000   1.0000   1.0000   1.0000   1.0000
     1.0000   1.0000   1.0000   1.0000   1.0000   1.0000   1.0000   1.0000
     1.0000   1.0000   1.0000   1.0000   1.0000   1.0000   1.0000   1.0000
     1.0000   1.0000   1.0000   1.0000   1.0000   1.0000   1.0000   1.0000
     1.0000   1.0000   1.0000   1.0000   1.0000   1.0000   1.0000   1.0000
     1.0000   1.0000   1.0000   1.0000   1.0000   1.0000   1.0000   1.0000
     1.0000   1.0000   1.0000   1.0000   1.0000   1.0000   1.0000   1.0000
     1.0000   1.0000   1.0000   1.0000   1.0000   1.0000   1.0000   1.0000
     1.0000   1.0000   1.0000   1.0000   1.0000   1.0000   1.0000   1.0000
     1.0000   1.0000   1.0000   1.0000   1.0000   1.0000   1.0000   1.0000
     1.0000   1.0000   1.0000   1.0000   1.0000   1.0000   1.0000   1.0000
     1.0000   1.0000   1.0270   1.0270   1.0741   1.0741   1.0117   1.0116
     0.0008   0.0008   0.0001   0.0001   0.0000   0.0000   0.0000   0.0000
     0.0000   0.0000   0.0000   0.0000   0.0000   0.0000   0.0000   0.0000
     0.0000   0.0000   0.0000   0.0000   0.0000   0.0000   0.0000   0.0000
     0.0000   0.0000   0.0000   0.0000   0.0000   0.0000   0.0000   0.0000
     0.0000   0.0000   0.0000   0.0000   0.0000   0.0000   0.0000   0.0000
     0.0000   0.0000   0.0000   0.0000   0.0000   0.0000   0.0000   0.0000
     0.0000   0.0000   0.0000   0.0000   0.0000   0.0000   0.0000   0.0000
     0.0000   0.0000   0.0000   0.0000   0.0000   0.0000   0.0000   0.0000
     0.0000   0.0000   0.0000   0.0000   0.0000   0.0000   0.0000   0.0000
     0.0000   0.0000   0.0000   0.0000   0.0000   0.0000   0.0000   0.0000
     0.0000   0.0000

          k = 0.0000 0.1136-0.0261 ( 53920 PWs)   bands (ev):

   -30.4719 -30.4719 -30.4717 -30.4717 -30.4715 -30.4715 -30.4710 -30.4710
   -30.4710 -30.4710 -30.4710 -30.4709 -30.4697 -30.4697 -30.4695 -30.4695
   -30.4694 -30.4694 -30.4689 -30.4689 -30.4689 -30.4689 -30.4688 -30.4688
   -30.4334 -30.4334 -30.4332 -30.4332 -30.4323 -30.4323 -30.4321 -30.4321
   -30.4316 -30.4316 -30.4306 -30.4306 -30.4298 -30.4298 -30.4296 -30.4296
   -30.4278 -30.4278 -30.4273 -30.4273 -30.4271 -30.4271 -30.4254 -30.4254
   -30.2951 -30.2951 -30.2947 -30.2947 -30.2944 -30.2944 -30.2943 -30.2943
   -30.2942 -30.2942 -30.2942 -30.2942 -30.2739 -30.2739 -30.2735 -30.2735
   -30.2731 -30.2731 -30.2731 -30.2731 -30.2730 -30.2730 -30.2730 -30.2730
   -29.0135 -29.0135 -29.0133 -29.0133 -29.0132 -29.0132 -29.0127 -29.0127
   -29.0126 -29.0126 -29.0126 -29.0126 -29.0126 -29.0126 -29.0124 -29.0124
   -29.0122 -29.0122 -29.0117 -29.0117 -29.0117 -29.0117 -29.0117 -29.0117
   -29.0107 -29.0107 -29.0105 -29.0105 -29.0104 -29.0104 -29.0099 -29.0099
   -29.0098 -29.0098 -29.0098 -29.0098 -28.9759 -28.9759 -28.9758 -28.9757
   -28.9753 -28.9752 -28.9751 -28.9750 -28.9742 -28.9742 -28.9739 -28.9739
   -28.9737 -28.9737 -28.9736 -28.9735 -28.9720 -28.9720 -28.9698 -28.9698
   -28.9696 -28.9696 -28.9689 -28.9689 -28.9688 -28.9687 -28.9686 -28.9686
   -28.9685 -28.9684 -28.9679 -28.9679 -28.9670 -28.9670 -28.9667 -28.9667
   -28.8384 -28.8384 -28.8379 -28.8379 -28.8376 -28.8376 -28.8375 -28.8375
   -28.8374 -28.8374 -28.8374 -28.8374 -28.8295 -28.8295 -28.8291 -28.8291
   -28.8287 -28.8287 -28.8287 -28.8287 -28.8286 -28.8286 -28.8286 -28.8286
   -28.8107 -28.8107 -28.8103 -28.8103 -28.8099 -28.8099 -28.8099 -28.8099
   -28.8098 -28.8098 -28.8098 -28.8098  -5.5166  -5.5166  -5.5164  -5.5164
    -5.5152  -5.5152  -5.4285  -5.4285  -5.4256  -5.4256  -5.4254  -5.4254
    -5.0935  -5.0935  -5.0928  -5.0928  -5.0830  -5.0830  -4.8726  -4.8726
    -4.8555  -4.8555  -4.8547  -4.8547  -4.3195  -4.3195  -4.3184  -4.3184
    -4.2366  -4.2366  -4.1358  -4.1358  -3.9960  -3.9960  -3.9934  -3.9934
    -3.8127  -3.8127  -3.8102  -3.8102  -3.7164  -3.7164  -3.3695  -3.3695
    -3.3397  -3.3397  -3.3391  -3.3391  -1.3969  -1.3969  -1.3937  -1.3937
    -1.3185  -1.3185  -1.1618  -1.1618  -1.0502  -1.0502  -1.0441  -1.0441
    -0.2892  -0.2892  -0.2770  -0.2770  -0.0852  -0.0852   0.0118   0.0118
     0.2306   0.2306   0.2542   0.2542   0.5061   0.5061   0.5220   0.5220
     0.5919   0.5919   1.7193   1.7193   1.7231   1.7231   1.7245   1.7245
     4.2856   4.2857   4.2870   4.2871   4.2878   4.2878   4.4158   4.4158
     4.4167   4.4168   4.4181   4.4181   4.4506   4.4506   4.4539   4.4539
     4.4565   4.4565   4.5503   4.5505   4.5558   4.5559   4.5587   4.5589
     4.7766   4.7767   4.7778   4.7780   4.7792   4.7793   4.9633   4.9634
     4.9699   4.9700   4.9738   4.9739   5.0450   5.0451   5.0453   5.0453
     5.0558   5.0558   5.2017   5.2017   5.2080   5.2080   5.2158   5.2158
     5.2697   5.2698   5.2897   5.2897   5.2940   5.2941   5.3183   5.3183
     5.3340   5.3340   5.3465   5.3466   5.4323   5.4324   5.4574   5.4575
     5.4615   5.4615   5.5161   5.5162   5.5361   5.5362   5.5441   5.5442
     5.6702   5.6702   5.6878   5.6878   5.7110   5.7111   5.8232   5.8233
     5.8758   5.8759   5.8884   5.8884   5.9394   5.9394   5.9826   5.9826
     6.0231   6.0231   6.0881   6.0882   6.0928   6.0928   6.1417   6.1418
     6.1802   6.1802   6.1814   6.1814   6.2782   6.2782   6.3410   6.3410
     6.4334   6.4335   6.4456   6.4456   6.4516   6.4516   6.4916   6.4916
     6.5582   6.5582   6.6149   6.6149   6.6274   6.6275   6.6405   6.6405
     6.7778   6.7778   6.7927   6.7927   6.7981   6.7982   6.8956   6.8956
     6.9795   6.9795   7.0758   7.0758   7.1999   7.2000   7.2760   7.2760
     7.2949   7.2949   7.4441   7.4441   7.4929   7.4929   7.5403   7.5403
     7.7104   7.7105   7.7573   7.7574   7.7907   7.7907   7.8850   7.8850
     7.9377   7.9377   7.9748   7.9748   8.0391   8.0391   8.0457   8.0457
     8.1235   8.1235   8.1241   8.1241   8.1657   8.1657   8.2115   8.2116
     8.2710   8.2711   8.2742   8.2743   8.3315   8.3315   8.3420   8.3421
     8.3870   8.3870   8.3908   8.3908   8.4847   8.4847   8.5003   8.5003
     8.5052   8.5053   8.7628   8.7628   8.7803   8.7803   8.7876   8.7876
     8.8414   8.8414   8.8852   8.8853   8.9348   8.9348   8.9834   8.9834
     9.0276   9.0277   9.0766   9.0767   9.2459   9.2460   9.2462   9.2463
     9.2713   9.2714   9.4494   9.4494   9.4832   9.4832   9.5032   9.5032
     9.5656   9.5657   9.5804   9.5804   9.6262   9.6263   9.6723   9.6724
     9.6840   9.6844

     occupation numbers 
     1.0000   1.0000   1.0000   1.0000   1.0000   1.0000   1.0000   1.0000
     1.0000   1.0000   1.0000   1.0000   1.0000   1.0000   1.0000   1.0000
     1.0000   1.0000   1.0000   1.0000   1.0000   1.0000   1.0000   1.0000
     1.0000   1.0000   1.0000   1.0000   1.0000   1.0000   1.0000   1.0000
     1.0000   1.0000   1.0000   1.0000   1.0000   1.0000   1.0000   1.0000
     1.0000   1.0000   1.0000   1.0000   1.0000   1.0000   1.0000   1.0000
     1.0000   1.0000   1.0000   1.0000   1.0000   1.0000   1.0000   1.0000
     1.0000   1.0000   1.0000   1.0000   1.0000   1.0000   1.0000   1.0000
     1.0000   1.0000   1.0000   1.0000   1.0000   1.0000   1.0000   1.0000
     1.0000   1.0000   1.0000   1.0000   1.0000   1.0000   1.0000   1.0000
     1.0000   1.0000   1.0000   1.0000   1.0000   1.0000   1.0000   1.0000
     1.0000   1.0000   1.0000   1.0000   1.0000   1.0000   1.0000   1.0000
     1.0000   1.0000   1.0000   1.0000   1.0000   1.0000   1.0000   1.0000
     1.0000   1.0000   1.0000   1.0000   1.0000   1.0000   1.0000   1.0000
     1.0000   1.0000   1.0000   1.0000   1.0000   1.0000   1.0000   1.0000
     1.0000   1.0000   1.0000   1.0000   1.0000   1.0000   1.0000   1.0000
     1.0000   1.0000   1.0000   1.0000   1.0000   1.0000   1.0000   1.0000
     1.0000   1.0000   1.0000   1.0000   1.0000   1.0000   1.0000   1.0000
     1.0000   1.0000   1.0000   1.0000   1.0000   1.0000   1.0000   1.0000
     1.0000   1.0000   1.0000   1.0000   1.0000   1.0000   1.0000   1.0000
     1.0000   1.0000   1.0000   1.0000   1.0000   1.0000   1.0000   1.0000
     1.0000   1.0000   1.0000   1.0000   1.0000   1.0000   1.0000   1.0000
     1.0000   1.0000   1.0000   1.0000   1.0000   1.0000   1.0000   1.0000
     1.0000   1.0000   1.0000   1.0000   1.0000   1.0000   1.0000   1.0000
     1.0000   1.0000   1.0000   1.0000   1.0000   1.0000   1.0000   1.0000
     1.0000   1.0000   1.0000   1.0000   1.0000   1.0000   1.0000   1.0000
     1.0000   1.0000   1.0000   1.0000   1.0000   1.0000   1.0000   1.0000
     1.0000   1.0000   1.0000   1.0000   1.0000   1.0000   1.0000   1.0000
     1.0000   1.0000   1.0000   1.0000   1.0000   1.0000   1.0000   1.0000
     1.0000   1.0000   1.0000   1.0000   1.0000   1.0000   1.0000   1.0000
     1.0000   1.0000   1.0000   1.0000   1.0000   1.0000   1.0000   1.0000
     1.0000   1.0000   1.0000   1.0000   1.0000   1.0000   1.0000   1.0000
     1.0000   1.0000   1.0000   1.0000   1.0000   1.0000   1.0000   1.0000
     1.0000   1.0000   1.0000   1.0000   1.0000   1.0000   1.0000   1.0000
     1.0000   1.0000   1.0000   1.0000   1.0000   1.0000   1.0000   1.0000
     1.0000   1.0000   1.0000   1.0000   1.0000   1.0000   1.0000   1.0000
     1.0000   1.0000   1.0000   1.0000   1.0000   1.0000   1.0000   1.0000
     1.0000   1.0000   1.0000   1.0000   1.0000   1.0000   1.0000   1.0000
     1.0000   1.0000   1.0000   1.0000   1.0000   1.0000   1.0000   1.0000
     1.0000   1.0000   1.0000   1.0000   1.0000   1.0000   1.0000   1.0000
     1.0000   1.0000   1.0000   1.0000   1.0000   1.0000   1.0000   1.0000
     1.0000   1.0000   1.0000   1.0000   1.0000   1.0000   1.0000   1.0000
     1.0000   1.0000   1.0000   1.0000   1.0000   1.0000   1.0000   1.0000
     1.0000   1.0000   1.0000   1.0000   1.0000   1.0000   1.0000   1.0000
     1.0000   1.0000   1.0000   1.0000   1.0000   1.0000   1.0000   1.0000
     1.0000   1.0000   1.0000   1.0000   1.0000   1.0000   1.0000   1.0000
     1.0000   1.0000   1.0000   1.0000   1.0000   1.0000   1.0000   1.0000
     1.0000   1.0000   1.0000   1.0000   1.0000   1.0000   1.0000   1.0000
     1.0000   1.0000   1.0000   1.0000   1.0000   1.0000   1.0000   1.0000
     1.0000   1.0000   1.0000   1.0000   1.0000   1.0000   1.0000   1.0000
     1.0000   1.0000   1.0197   1.0197   1.0778   1.0778   0.9842   0.9841
     0.0023   0.0023   0.0001   0.0001   0.0000   0.0000   0.0000   0.0000
     0.0000   0.0000   0.0000   0.0000   0.0000   0.0000   0.0000   0.0000
     0.0000   0.0000   0.0000   0.0000   0.0000   0.0000   0.0000   0.0000
     0.0000   0.0000   0.0000   0.0000   0.0000   0.0000   0.0000   0.0000
     0.0000   0.0000   0.0000   0.0000   0.0000   0.0000   0.0000   0.0000
     0.0000   0.0000   0.0000   0.0000   0.0000   0.0000   0.0000   0.0000
     0.0000   0.0000   0.0000   0.0000   0.0000   0.0000   0.0000   0.0000
     0.0000   0.0000   0.0000   0.0000   0.0000   0.0000   0.0000   0.0000
     0.0000   0.0000   0.0000   0.0000   0.0000   0.0000   0.0000   0.0000
     0.0000   0.0000   0.0000   0.0000   0.0000   0.0000   0.0000   0.0000
     0.0000   0.0000

          k = 0.0000 0.2272 0.0000 ( 53940 PWs)   bands (ev):

   -30.4719 -30.4718 -30.4717 -30.4717 -30.4715 -30.4715 -30.4710 -30.4710
   -30.4710 -30.4710 -30.4709 -30.4709 -30.4696 -30.4696 -30.4694 -30.4694
   -30.4693 -30.4693 -30.4688 -30.4688 -30.4688 -30.4688 -30.4687 -30.4687
   -30.4332 -30.4332 -30.4331 -30.4331 -30.4323 -30.4323 -30.4321 -30.4321
   -30.4315 -30.4315 -30.4306 -30.4306 -30.4296 -30.4296 -30.4294 -30.4294
   -30.4276 -30.4276 -30.4274 -30.4274 -30.4273 -30.4273 -30.4255 -30.4255
   -30.2951 -30.2951 -30.2947 -30.2947 -30.2944 -30.2943 -30.2943 -30.2943
   -30.2942 -30.2942 -30.2942 -30.2942 -30.2738 -30.2738 -30.2734 -30.2734
   -30.2730 -30.2730 -30.2730 -30.2730 -30.2729 -30.2729 -30.2729 -30.2729
   -29.0135 -29.0134 -29.0133 -29.0132 -29.0132 -29.0131 -29.0126 -29.0126
   -29.0126 -29.0126 -29.0126 -29.0126 -29.0125 -29.0125 -29.0124 -29.0124
   -29.0123 -29.0123 -29.0118 -29.0118 -29.0118 -29.0118 -29.0117 -29.0117
   -29.0105 -29.0105 -29.0103 -29.0103 -29.0102 -29.0102 -29.0097 -29.0097
   -29.0097 -29.0097 -29.0096 -29.0096 -28.9758 -28.9758 -28.9757 -28.9756
   -28.9751 -28.9751 -28.9750 -28.9749 -28.9741 -28.9740 -28.9737 -28.9737
   -28.9736 -28.9735 -28.9734 -28.9734 -28.9719 -28.9719 -28.9702 -28.9702
   -28.9701 -28.9700 -28.9688 -28.9688 -28.9687 -28.9686 -28.9684 -28.9684
   -28.9684 -28.9684 -28.9683 -28.9682 -28.9669 -28.9669 -28.9665 -28.9665
   -28.8383 -28.8383 -28.8379 -28.8379 -28.8375 -28.8375 -28.8375 -28.8375
   -28.8374 -28.8374 -28.8374 -28.8374 -28.8296 -28.8296 -28.8291 -28.8291
   -28.8288 -28.8288 -28.8288 -28.8288 -28.8286 -28.8286 -28.8286 -28.8286
   -28.8105 -28.8105 -28.8101 -28.8101 -28.8097 -28.8097 -28.8097 -28.8097
   -28.8096 -28.8096 -28.8096 -28.8096  -5.2623  -5.2623  -5.2612  -5.2612
    -5.2611  -5.2611  -5.1746  -5.1746  -5.1743  -5.1743  -5.1719  -5.1719
    -4.8619  -4.8619  -4.8542  -4.8542  -4.8532  -4.8532  -4.6382  -4.6382
    -4.6365  -4.6365  -4.6235  -4.6235  -4.0999  -4.0999  -4.0461  -4.0461
    -4.0332  -4.0332  -3.9066  -3.9066  -3.8865  -3.8865  -3.7510  -3.7510
    -3.7067  -3.7067  -3.6059  -3.6059  -3.5948  -3.5948  -3.1383  -3.1383
    -3.1346  -3.1346  -3.1207  -3.1207  -1.3883  -1.3883  -1.3641  -1.3641
    -1.3349  -1.3349  -1.1878  -1.1878  -1.1445  -1.1445  -1.1123  -1.1123
    -0.4508  -0.4508  -0.4343  -0.4343  -0.3237  -0.3237  -0.2846  -0.2846
    -0.1669  -0.1669  -0.1646  -0.1646   0.1340   0.1340   0.1393   0.1393
     0.1565   0.1565   1.1639   1.1639   1.1642   1.1642   1.1647   1.1647
     3.3243   3.3243   3.3270   3.3270   3.3337   3.3337   3.4686   3.4686
     3.4837   3.4838   3.5007   3.5007   3.7508   3.7508   3.8116   3.8116
     3.8145   3.8146   4.0087   4.0087   4.0942   4.0943   4.0967   4.0967
     4.1764   4.1764   4.1911   4.1911   4.1942   4.1943   4.2465   4.2465
     4.2746   4.2747   4.2875   4.2875   4.3250   4.3251   4.3697   4.3697
     4.4213   4.4213   4.6434   4.6435   4.6475   4.6475   4.6528   4.6528
     4.7122   4.7122   4.7177   4.7177   4.7268   4.7269   4.7436   4.7437
     4.7704   4.7704   4.8393   4.8393   4.9183   4.9183   4.9254   4.9254
     4.9399   4.9399   5.1279   5.1279   5.1473   5.1473   5.1814   5.1814
     5.3836   5.3836   5.4127   5.4127   5.4199   5.4199   5.4807   5.4807
     5.5416   5.5416   5.5487   5.5487   5.6758   5.6759   5.7346   5.7346
     5.7514   5.7515   5.8368   5.8368   5.9124   5.9125   5.9246   5.9247
     5.9486   5.9487   5.9850   5.9850   6.0576   6.0576   6.0815   6.0815
     6.1261   6.1261   6.1985   6.1985   6.2764   6.2765   6.3212   6.3212
     6.3630   6.3630   6.3681   6.3681   6.4175   6.4175   6.4180   6.4180
     6.5078   6.5079   6.5902   6.5902   6.6410   6.6411   6.6984   6.6984
     6.9063   6.9063   6.9272   6.9272   6.9300   6.9300   7.0463   7.0463
     7.0517   7.0517   7.3813   7.3813   7.5236   7.5236   7.5999   7.5999
     7.8281   7.8281   7.9054   7.9054   7.9927   7.9927   8.1417   8.1417
     8.1473   8.1473   8.2566   8.2566   8.2765   8.2765   8.3780   8.3781
     8.4102   8.4102   8.4633   8.4633   8.5393   8.5393   8.5550   8.5550
     8.6307   8.6308   8.6497   8.6497   8.8017   8.8017   8.8406   8.8406
     8.8819   8.8819   8.9288   8.9288   8.9686   8.9686   9.0935   9.0935
     9.1616   9.1616   9.2031   9.2032   9.2353   9.2353   9.2630   9.2630
     9.2768   9.2769   9.4265   9.4265   9.4281   9.4281   9.4600   9.4600
     9.5420   9.5420   9.5439   9.5439   9.6861   9.6861   9.7021   9.7021
     9.7336   9.7336   9.7924   9.7924   9.8379   9.8379   9.8753   9.8753
     9.9126   9.9126   9.9511   9.9511   9.9608   9.9608  10.0084  10.0084
    10.0667  10.0668

     occupation numbers 
     1.0000   1.0000   1.0000   1.0000   1.0000   1.0000   1.0000   1.0000
[...]
     atom   37 type  2   force =    -0.00001925   -0.00004621   10.90510149
     atom   38 type  2   force =    -0.00000000    0.00001235  -10.90452581
     atom   39 type  2   force =    -0.00000000   -0.00004016   10.89409409
     atom   40 type  2   force =     0.00000000   -0.00000000  -10.97102433
     atom   41 type  2   force =    -0.00000000    0.00000000   10.97130797
     atom   42 type  2   force =    -0.00000403    0.00003243  -10.89410224
     The core correction contribution to forces
     atom    1 type  1   force =     0.00000004    0.00000003   -0.02015905
     atom    2 type  1   force =    -0.00000000   -0.00000002    0.02015911
     atom    3 type  1   force =    -0.00000000    0.00000005   -0.02016811
     atom    4 type  1   force =    -0.00000000   -0.00000000    0.02017114
     atom    5 type  1   force =    -0.00000000   -0.00000000   -0.02017038
     atom    6 type  1   force =    -0.00000001   -0.00000001    0.02016888
     atom    7 type  1   force =    -0.00000000   -0.00000000    0.02366536
     atom    8 type  1   force =    -0.00000000    0.00000000   -0.02366535
     atom    9 type  1   force =     0.00000004    0.00000003    0.02367598
     atom   10 type  1   force =     0.00000004    0.00000003   -0.02368650
     atom   11 type  1   force =     0.00000000    0.00000005    0.02368722
     atom   12 type  1   force =     0.00000000    0.00000005   -0.02367525
     atom   13 type  1   force =     0.00000004    0.00000002    0.01097980
     atom   14 type  1   force =    -0.00000000   -0.00000001   -0.01097994
     atom   15 type  1   force =    -0.00000000    0.00000004    0.01098517
     atom   16 type  1   force =    -0.00000000    0.00000000   -0.01097646
     atom   17 type  1   force =     0.00000000   -0.00000000    0.01097708
     atom   18 type  1   force =    -0.00000001   -0.00000001   -0.01098516
     atom   19 type  1   force =     0.00000000    0.00000004   -0.01430312
     atom   20 type  1   force =    -0.00000001   -0.00000001    0.01430282
     atom   21 type  1   force =    -0.00000000    0.00000000   -0.01431749
     atom   22 type  1   force =    -0.00000000   -0.00000001    0.01431575
     atom   23 type  1   force =     0.00000004    0.00000002   -0.01431636
     atom   24 type  1   force =     0.00000000   -0.00000000    0.01431750
     atom   25 type  2   force =    -0.00000266   -0.00000355   -0.00218620
     atom   26 type  2   force =     0.00000099    0.00000054    0.00216032
     atom   27 type  2   force =    -0.00000000   -0.00000000   -0.00220289
     atom   28 type  2   force =     0.00000266    0.00000109    0.00228323
     atom   29 type  2   force =    -0.00000304   -0.00000177   -0.00228391
     atom   30 type  2   force =     0.00000000    0.00000000    0.00225253
     atom   31 type  2   force =    -0.00000000   -0.00000000    0.00009441
     atom   32 type  2   force =     0.00000000    0.00000000   -0.00012029
     atom   33 type  2   force =    -0.00000304   -0.00000177    0.00015184
     atom   34 type  2   force =    -0.00000304   -0.00000177   -0.00019197
     atom   35 type  2   force =     0.00000000   -0.00000355    0.00019128
     atom   36 type  2   force =    -0.00000000   -0.00000355   -0.00010217
     atom   37 type  2   force =    -0.00000170   -0.00000408    0.00378252
     atom   38 type  2   force =     0.00000000    0.00000109   -0.00373288
     atom   39 type  2   force =    -0.00000000   -0.00000354    0.00375798
     atom   40 type  2   force =    -0.00000000   -0.00000000   -0.00366279
     atom   41 type  2   force =    -0.00000000    0.00000000    0.00368725
     atom   42 type  2   force =    -0.00000036    0.00000286   -0.00375867
     The Hubbard contrib.    to forces
     atom    1 type  1   force =     0.00000000    0.00000000    0.00000000
     atom    2 type  1   force =     0.00000000    0.00000000    0.00000000
     atom    3 type  1   force =     0.00000000    0.00000000    0.00000000
     atom    4 type  1   force =     0.00000000    0.00000000    0.00000000
     atom    5 type  1   force =     0.00000000    0.00000000    0.00000000
     atom    6 type  1   force =     0.00000000    0.00000000    0.00000000
     atom    7 type  1   force =     0.00000000    0.00000000    0.00000000
     atom    8 type  1   force =     0.00000000    0.00000000    0.00000000
     atom    9 type  1   force =     0.00000000    0.00000000    0.00000000
     atom   10 type  1   force =     0.00000000    0.00000000    0.00000000
     atom   11 type  1   force =     0.00000000    0.00000000    0.00000000
     atom   12 type  1   force =     0.00000000    0.00000000    0.00000000
     atom   13 type  1   force =     0.00000000    0.00000000    0.00000000
     atom   14 type  1   force =     0.00000000    0.00000000    0.00000000
     atom   15 type  1   force =     0.00000000    0.00000000    0.00000000
     atom   16 type  1   force =     0.00000000    0.00000000    0.00000000
     atom   17 type  1   force =     0.00000000    0.00000000    0.00000000
     atom   18 type  1   force =     0.00000000    0.00000000    0.00000000
     atom   19 type  1   force =     0.00000000    0.00000000    0.00000000
     atom   20 type  1   force =     0.00000000    0.00000000    0.00000000
     atom   21 type  1   force =     0.00000000    0.00000000    0.00000000
     atom   22 type  1   force =     0.00000000    0.00000000    0.00000000
     atom   23 type  1   force =     0.00000000    0.00000000    0.00000000
     atom   24 type  1   force =     0.00000000    0.00000000    0.00000000
     atom   25 type  2   force =     0.00000000    0.00000000    0.00000000
     atom   26 type  2   force =     0.00000000    0.00000000    0.00000000
     atom   27 type  2   force =     0.00000000    0.00000000    0.00000000
     atom   28 type  2   force =     0.00000000    0.00000000    0.00000000
     atom   29 type  2   force =     0.00000000    0.00000000    0.00000000
     atom   30 type  2   force =     0.00000000    0.00000000    0.00000000
     atom   31 type  2   force =     0.00000000    0.00000000    0.00000000
     atom   32 type  2   force =     0.00000000    0.00000000    0.00000000
     atom   33 type  2   force =     0.00000000    0.00000000    0.00000000
     atom   34 type  2   force =     0.00000000    0.00000000    0.00000000
     atom   35 type  2   force =     0.00000000    0.00000000    0.00000000
     atom   36 type  2   force =     0.00000000    0.00000000    0.00000000
     atom   37 type  2   force =     0.00000000    0.00000000    0.00000000
     atom   38 type  2   force =     0.00000000    0.00000000    0.00000000
     atom   39 type  2   force =     0.00000000    0.00000000    0.00000000
     atom   40 type  2   force =     0.00000000    0.00000000    0.00000000
     atom   41 type  2   force =     0.00000000    0.00000000    0.00000000
     atom   42 type  2   force =     0.00000000    0.00000000    0.00000000
     The SCF correction term to forces
     atom    1 type  1   force =    -0.00000000   -0.00000000    0.00001620
     atom    2 type  1   force =     0.00000000    0.00000000   -0.00001620
     atom    3 type  1   force =     0.00000000   -0.00000000    0.00002648
     atom    4 type  1   force =     0.00000000    0.00000000    0.00002047
     atom    5 type  1   force =     0.00000000    0.00000000   -0.00002047
     atom    6 type  1   force =     0.00000000    0.00000000   -0.00002649
     atom    7 type  1   force =     0.00000000    0.00000000    0.00003164
     atom    8 type  1   force =    -0.00000000   -0.00000000   -0.00003164
     atom    9 type  1   force =    -0.00000000   -0.00000000    0.00002638
     atom   10 type  1   force =    -0.00000000   -0.00000000    0.00000970
     atom   11 type  1   force =     0.00000000   -0.00000000   -0.00000970
     atom   12 type  1   force =    -0.00000000   -0.00000000   -0.00002638
     atom   13 type  1   force =     0.00000000    0.00000000    0.00002211
     atom   14 type  1   force =    -0.00000000    0.00000000   -0.00002211
     atom   15 type  1   force =     0.00000000   -0.00000000    0.00003678
     atom   16 type  1   force =    -0.00000000    0.00000000   -0.00001960
     atom   17 type  1   force =     0.00000000    0.00000000    0.00001960
     atom   18 type  1   force =     0.00000000    0.00000000   -0.00003678
     atom   19 type  1   force =     0.00000000    0.00000000    0.00001180
     atom   20 type  1   force =     0.00000000   -0.00000000   -0.00001180
     atom   21 type  1   force =     0.00000000    0.00000000    0.00001019
     atom   22 type  1   force =     0.00000000    0.00000000   -0.00001524
     atom   23 type  1   force =    -0.00000000    0.00000000    0.00001524
     atom   24 type  1   force =     0.00000000   -0.00000000   -0.00001019
     atom   25 type  2   force =    -0.00000000   -0.00000000    0.00011884
     atom   26 type  2   force =     0.00000000    0.00000000   -0.00011885
     atom   27 type  2   force =     0.00000000    0.00000000    0.00011048
     atom   28 type  2   force =     0.00000000    0.00000000   -0.00003422
     atom   29 type  2   force =    -0.00000000   -0.00000000    0.00003422
     atom   30 type  2   force =    -0.00000000    0.00000000   -0.00011047
     atom   31 type  2   force =     0.00000000    0.00000000    0.00000816
     atom   32 type  2   force =    -0.00000000   -0.00000000   -0.00000817
     atom   33 type  2   force =    -0.00000000   -0.00000000    0.00008821
     atom   34 type  2   force =    -0.00000000   -0.00000000   -0.00006800
     atom   35 type  2   force =     0.00000000   -0.00000000    0.00006800
     atom   36 type  2   force =    -0.00000000   -0.00000000   -0.00008820
     atom   37 type  2   force =    -0.00000000   -0.00000000    0.00006386
     atom   38 type  2   force =    -0.00000000    0.00000000   -0.00006385
     atom   39 type  2   force =     0.00000000   -0.00000000    0.00000369
     atom   40 type  2   force =     0.00000000    0.00000000    0.00000722
     atom   41 type  2   force =     0.00000000    0.00000000   -0.00000722
     atom   42 type  2   force =    -0.00000000    0.00000000   -0.00000369

     DFT-D3 dispersion contribution to forces:
     atom    1 type  1   force =     0.00000000    0.00000000    0.00182714
     atom    2 type  1   force =    -0.00000000   -0.00000000   -0.00182714
     atom    3 type  1   force =    -0.00000000    0.00000000    0.00182683
     atom    4 type  1   force =    -0.00000000   -0.00000000   -0.00182755
     atom    5 type  1   force =     0.00000000    0.00000000    0.00182755
     atom    6 type  1   force =    -0.00000000   -0.00000000   -0.00182684
     atom    7 type  1   force =    -0.00000000   -0.00000000   -0.00057986
     atom    8 type  1   force =     0.00000000    0.00000000    0.00057986
     atom    9 type  1   force =     0.00000000    0.00000000   -0.00058163
     atom   10 type  1   force =     0.00000000    0.00000000    0.00058252
     atom   11 type  1   force =    -0.00000000    0.00000000   -0.00058252
     atom   12 type  1   force =     0.00000000    0.00000000    0.00058164
     atom   13 type  1   force =     0.00000000    0.00000000   -0.00053011
     atom   14 type  1   force =     0.00000000   -0.00000000    0.00053011
     atom   15 type  1   force =    -0.00000000    0.00000000   -0.00053177
     atom   16 type  1   force =     0.00000000   -0.00000000    0.00052939
     atom   17 type  1   force =    -0.00000000   -0.00000000   -0.00052940
     atom   18 type  1   force =    -0.00000000   -0.00000000    0.00053178
     atom   19 type  1   force =    -0.00000000    0.00000000    0.00080056
     atom   20 type  1   force =    -0.00000000   -0.00000000   -0.00080056
     atom   21 type  1   force =    -0.00000000   -0.00000000    0.00079793
     atom   22 type  1   force =    -0.00000000   -0.00000000   -0.00079967
     atom   23 type  1   force =     0.00000000   -0.00000000    0.00079968
     atom   24 type  1   force =    -0.00000000   -0.00000000   -0.00079793
     atom   25 type  2   force =     0.00000000    0.00000000    0.00001443
     atom   26 type  2   force =    -0.00000000    0.00000000   -0.00001442
     atom   27 type  2   force =    -0.00000000   -0.00000000    0.00001652
     atom   28 type  2   force =    -0.00000000   -0.00000000   -0.00001083
     atom   29 type  2   force =     0.00000000    0.00000000    0.00001082
     atom   30 type  2   force =     0.00000000   -0.00000000   -0.00001653
     atom   31 type  2   force =    -0.00000000   -0.00000000   -0.00019871
     atom   32 type  2   force =     0.00000000    0.00000000    0.00019870
     atom   33 type  2   force =     0.00000000    0.00000000   -0.00020560
     atom   34 type  2   force =     0.00000000    0.00000000    0.00018883
     atom   35 type  2   force =    -0.00000000    0.00000000   -0.00018883
     atom   36 type  2   force =     0.00000000    0.00000000    0.00020560
     atom   37 type  2   force =     0.00000000    0.00000000   -0.00054761
     atom   38 type  2   force =     0.00000000   -0.00000000    0.00054762
     atom   39 type  2   force =     0.00000000    0.00000000   -0.00055062
     atom   40 type  2   force =     0.00000000   -0.00000000    0.00055274
     atom   41 type  2   force =    -0.00000000    0.00000000   -0.00055274
     atom   42 type  2   force =     0.00000000   -0.00000000    0.00055061

     Total force =     0.003903     Total SCF correction =     0.000316

     DFT-D3 dispersion Force =     0.005444


     Computing stress (Cartesian axis) and pressure

          total   stress  (Ry/bohr**3)                   (kbar)     P=       -1.25
  -0.00001232   0.00000000   0.00000000           -1.81        0.00        0.00
   0.00000000  -0.00001232   0.00000000            0.00       -1.81        0.00
   0.00000000   0.00000000  -0.00000086            0.00        0.00       -0.13

     kinetic stress (kbar)   6391.98      0.00      0.00
                                0.00   6391.98      0.00
                                0.00      0.00   6400.63

     local   stress (kbar) -25127.58      0.00     -0.00
                                0.00 -25127.58     -0.00
                               -0.00     -0.00  26853.10

     nonloc. stress (kbar)   1399.81      0.00     -0.00
                                0.00   1399.81     -0.00
                               -0.00     -0.00   1395.34

     hartree stress (kbar)  19912.52     -0.00      0.00
                               -0.00  19912.52      0.00
                                0.00      0.00  -6080.52

     exc-cor stress (kbar)   6983.34     -0.00      0.00
                               -0.00   6983.34      0.00
                                0.00      0.00   6983.96

     corecor stress (kbar) -10166.18      0.00     -0.00
                                0.00 -10166.18     -0.00
                               -0.00     -0.00 -10165.35

     ewald   stress (kbar)    613.03     -0.00      0.00
                               -0.00    613.03      0.00
                                0.00      0.00 -25375.38

     hubbard stress (kbar)      0.00      0.00      0.00
                                0.00      0.00      0.00
                                0.00      0.00      0.00

     DFT-D   stress (kbar)     -8.74     -0.00      0.00
                               -0.00     -8.74     -0.00
                                0.00     -0.00    -11.91

     XDM     stress (kbar)      0.00      0.00      0.00
                                0.00      0.00      0.00
                                0.00      0.00      0.00

     dft-nl  stress (kbar)      0.00      0.00      0.00
                                0.00      0.00      0.00
                                0.00      0.00      0.00

     TS-vdW  stress (kbar)      0.00      0.00      0.00
                                0.00      0.00      0.00
                                0.00      0.00      0.00



     Writing output data file ./temp/sb4te3.save/

     init_run     :    153.13s CPU    155.12s WALL (       1 calls)
     electrons    :  18816.80s CPU  18972.21s WALL (       1 calls)
     forces       :    175.17s CPU    176.00s WALL (       1 calls)
     stress       :    937.57s CPU    941.96s WALL (       1 calls)

     Called by init_run:
     wfcinit      :    150.15s CPU    151.97s WALL (       1 calls)
     wfcinit:atom :      0.34s CPU      0.59s WALL (      28 calls)
     wfcinit:wfcr :    145.62s CPU    146.78s WALL (      28 calls)
     potinit      :      1.08s CPU      1.12s WALL (       1 calls)
     hinit0       :      0.62s CPU      0.65s WALL (       1 calls)

     Called by electrons:
     c_bands      :  16750.67s CPU  16886.77s WALL (      34 calls)
     sum_band     :   2003.83s CPU   2019.64s WALL (      34 calls)
     v_of_rho     :      2.08s CPU      2.10s WALL (      34 calls)
     v_h          :      0.11s CPU      0.12s WALL (      34 calls)
     v_xc         :      2.08s CPU      2.10s WALL (      36 calls)
     newd         :     38.87s CPU     42.23s WALL (      34 calls)
     PAW_pot      :     17.90s CPU     18.00s WALL (      34 calls)
     mix_rho      :      2.42s CPU      2.49s WALL (      34 calls)

     Called by c_bands:
     init_us_2    :     29.06s CPU     29.27s WALL (    1988 calls)
     cegterg      :  16325.02s CPU  16458.64s WALL (     957 calls)

     Called by sum_band:
     sum_band:wei :      0.33s CPU      0.34s WALL (      34 calls)
     sum_band:loo :   1980.34s CPU   1992.61s WALL (      34 calls)
     sum_band:buf :      7.92s CPU      8.21s WALL (     952 calls)
     sum_band:ini :     13.84s CPU     13.92s WALL (     952 calls)
     sum_band:cal :    863.21s CPU    867.07s WALL (     952 calls)
     sum_band:bec :     60.69s CPU     60.96s WALL (     952 calls)
     addusdens    :     17.32s CPU     20.81s WALL (      34 calls)
     addusd:skk   :      0.14s CPU      0.15s WALL (      68 calls)
     addusd:dgemm :      4.50s CPU      7.85s WALL (      68 calls)
     addusd:qvan2 :     12.22s CPU     12.28s WALL (      68 calls)

     Called by *egterg:
     cdiaghg      :   1193.26s CPU   1198.08s WALL (    6139 calls)
     cegterg:over :   1592.42s CPU   1599.55s WALL (    5210 calls)
     cegterg:upda :    973.61s CPU    985.44s WALL (    5210 calls)
     cegterg:last :   2129.77s CPU   2139.21s WALL (    1817 calls)
     cdiaghg:chol :     78.11s CPU     78.48s WALL (    6139 calls)
     cdiaghg:inve :     76.98s CPU     77.29s WALL (    6139 calls)
     cdiaghg:para :    191.52s CPU    192.42s WALL (   12278 calls)
     h_psi        :   7963.54s CPU   8029.69s WALL (    6195 calls)
     s_psi        :   2025.93s CPU   2035.22s WALL (    6195 calls)
     g_psi        :     14.67s CPU     14.76s WALL (    5210 calls)

     Called by h_psi:
     h_psi:calbec :   2082.36s CPU   2091.82s WALL (    6195 calls)
     vloc_psi     :   3853.94s CPU   3885.90s WALL (    6195 calls)
     add_vuspsi   :   2011.67s CPU   2021.19s WALL (    6195 calls)

     General routines
     calbec       :   3222.08s CPU   3236.45s WALL (    7287 calls)
     fft          :      2.72s CPU      2.78s WALL (     766 calls)
     ffts         :      0.68s CPU      0.69s WALL (     272 calls)
     fftw         :   4414.48s CPU   4450.61s WALL ( 5266908 calls)
     interpolate  :      0.76s CPU      0.76s WALL (     136 calls)

     Parallel routines
     fft_scatt_xy :    329.68s CPU    332.08s WALL ( 5267946 calls)
     fft_scatt_yz :   1939.02s CPU   1955.81s WALL ( 5267946 calls)

     PAW routines
     PAW_pot      :     17.90s CPU     18.00s WALL (      34 calls)
     PAW_symme    :      0.28s CPU      0.29s WALL (      68 calls)

     PWSCF        :      5h35m CPU      5h37m WALL


   This run was terminated on:  19:28:56  25Mar2024            

=------------------------------------------------------------------------------=
   JOB DONE.
=------------------------------------------------------------------------------=
